,File Name,SMILES,Neutral Free Energy,Reduced Free Energy,Neutral Dipole moment,Neutral HOMO_Opt,Neutral HOMO_Unopt,Red Pot Li/Li+ (V)
1057,BTZ-Neutral-wb97xd-1950,CC(=O)N(c1c(SC(F)(F)F)c(C(F)(F)F)c(C#N)c2nsnc12)C(F)(F)C(F)(F)F,-2685.415401,-2685.5683129999998,6.8977,-9.808388699999998,-9.5381934,2.920735519988029
1058,BTZ-Neutral-wb97xd-1951,COc1c(C(F)(F)F)c(SC(F)(F)F)c(N(C(C)=O)C(F)(F)C(F)(F)F)c2nsnc12,-2707.67217,-2707.8051920000003,6.3942,-8.819849399999997,-8.846243099999999,2.379528620011902
1059,BTZ-Neutral-wb97xd-1952,CC(=O)N(c1c(SC(F)(F)F)c(C(F)(F)F)c(OC(F)(F)F)c2nsnc12)C(F)(F)C(F)(F)F,-3005.368232,-3005.51202,5.6906,-9.7379148,-9.4715289,2.672471480008526
1060,BTZ-Neutral-wb97xd-1953,CSc1c(C(F)(F)F)c(SC(F)(F)F)c(N(C(C)=O)C(F)(F)C(F)(F)F)c2nsnc12,-3030.660628,-3030.801304,7.8921,-8.588020199999999,-8.805700199999999,2.5877939599995896
1061,BTZ-Neutral-wb97xd-1954,CC(=O)N(c1c(SC(F)(F)F)c(C(F)(F)F)c(SC(F)(F)F)c2nsnc12)C(F)(F)C(F)(F)F,-3328.32683,-3328.473008,4.8569,-9.7077117,-9.716691,2.7375033799990067
1062,BTZ-Neutral-wb97xd-1955,CC(=O)N(c1c(SC(F)(F)F)c(C(F)(F)F)c(Br)c2nsnc12)C(F)(F)C(F)(F)F,-5164.3722880000005,-5164.5137429999995,4.3903,-9.3980619,-9.3134388,2.6089905499739148
1063,BTZ-Neutral-wb97xd-1956,CC(=O)N(c1c(SC(F)(F)F)c(C(F)(F)F)c(N(C)C)c2nsnc12)C(F)(F)C(F)(F)F,-2727.077479,-2727.2100570000002,5.1716,-8.389387199999998,-8.6067951,2.3674473800052827
1064,BTZ-Neutral-wb97xd-1957,CC(=O)N(c1c(SC(F)(F)F)c(C(F)(F)F)c([N+](=O)[O-])c2nsnc12)C(F)(F)C(F)(F)F,-2797.6393399999997,-2797.791095,4.1829,-9.8872977,-9.740635800000002,2.889253550008739
1065,BTZ-Neutral-wb97xd-1958,CC(=O)N(c1c(SC(F)(F)F)c(C(F)(F)F)c(S(=O)(=O)N(C)C)c2nsnc12)C(F)(F)C(F)(F)F,-3275.5879609999997,-3275.737579,10.079,-9.3455466,-9.019570800000002,2.831105780010157
1066,BTZ-Neutral-wb97xd-1959,CC(=O)N(c1c(SC(F)(F)F)c(C#N)c(C)c2nsnc12)C(F)(F)C(F)(F)F,-2387.760215,-2387.8992940000003,8.4581,-9.3213297,-9.1708584,2.544339590013406
1068,BTZ-Neutral-wb97xd-1960,CC(=O)N(c1c(SC(F)(F)F)c(C#N)c(C(F)(F)F)c2nsnc12)C(F)(F)C(F)(F)F,-2685.424693,-2685.576809,6.3297,-9.8399523,-9.6633594,2.8990763600055924
1069,BTZ-Neutral-wb97xd-1961,CC(=O)N(c1c(SC(F)(F)F)c(C#N)c(C#N)c2nsnc12)C(F)(F)C(F)(F)F,-2440.670152,-2440.827684,10.0959,-9.8059398,-9.6192792,3.0464457199923576
1070,BTZ-Neutral-wb97xd-1962,COc1c(C#N)c(SC(F)(F)F)c(N(C(C)=O)C(F)(F)C(F)(F)F)c2nsnc12,-2462.933983,-2463.0711969999998,11.522,-8.8122306,-8.8674669,2.4935929399961383
1071,BTZ-Neutral-wb97xd-1963,CC(=O)N(c1c(SC(F)(F)F)c(C#N)c(OC(F)(F)F)c2nsnc12)C(F)(F)C(F)(F)F,-2760.6222980000002,-2760.772798,6.0695,-9.6271701,-9.449488800000001,2.8551049999928724
1072,BTZ-Neutral-wb97xd-1964,CSc1c(C#N)c(SC(F)(F)F)c(N(C(C)=O)C(F)(F)C(F)(F)F)c2nsnc12,-2785.923006,-2786.0657300000003,10.6778,-8.592918000000001,-8.904744599999999,2.6435200400073793
1073,BTZ-Neutral-wb97xd-1965,CC(=O)N(c1c(SC(F)(F)F)c(C#N)c(SC(F)(F)F)c2nsnc12)C(F)(F)C(F)(F)F,-3083.587551,-3083.7404260000003,7.3916,-9.7640364,-9.551254199999999,2.9197287500060387
1074,BTZ-Neutral-wb97xd-1966,CC(=O)N(c1c(SC(F)(F)F)c(C#N)c(Br)c2nsnc12)C(F)(F)C(F)(F)F,-4919.631853,-4919.7784759999995,6.7382,-9.451937699999998,-9.3890826,2.74961182999009
1075,BTZ-Neutral-wb97xd-1967,CC(=O)N(c1c(SC(F)(F)F)c(C#N)c(N(C)C)c2nsnc12)C(F)(F)C(F)(F)F,-2482.348716,-2482.479494,12.6167,-7.9564761000000015,-7.964367000000001,2.3184693800052036
1076,BTZ-Neutral-wb97xd-1968,CC(=O)N(c1c(SC(F)(F)F)c(C#N)c([N+](=O)[O-])c2nsnc12)C(F)(F)C(F)(F)F,-2552.890472,-2553.052803,9.2184,-9.9392688,-9.6094836,3.1770265099998554
1077,BTZ-Neutral-wb97xd-1969,CC(=O)N(c1c(SC(F)(F)F)c(C#N)c(S(=O)(=O)N(C)C)c2nsnc12)C(F)(F)C(F)(F)F,-3030.844948,-3030.997921,9.2544,-9.300922199999999,-9.1730352,2.922395330005493
1079,BTZ-Neutral-wb97xd-1970,COc1c(SC(F)(F)F)c(N(C(C)=O)C(F)(F)C(F)(F)F)c2nsnc2c1C,-2410.006223,-2410.131471,2.3046,-8.5599939,-8.605434599999999,2.1679980800077105
1080,BTZ-Neutral-wb97xd-1971,COc1c(SC(F)(F)F)c(N(C(C)=O)C(F)(F)C(F)(F)F)c2nsnc2c1C(F)(F)F,-2707.682694,-2707.821422,5.8020000000000005,-9.4239114,-9.3254112,2.534788879997304
1081,BTZ-Neutral-wb97xd-1972,COc1c(SC(F)(F)F)c(N(C(C)=O)C(F)(F)C(F)(F)F)c2nsnc2c1C#N,-2462.933184,-2463.076707,4.5052,-9.0187545,-9.294936,2.665260830005077
1082,BTZ-Neutral-wb97xd-1973,COc1c(SC(F)(F)F)c(N(C(C)=O)C(F)(F)C(F)(F)F)c2nsnc2c1OC,-2485.18276,-2485.311279,11.5707,-8.321362200000001,-8.468840400000001,2.257001989996443
1083,BTZ-Neutral-wb97xd-1974,COc1c(SC(F)(F)F)c(N(C(C)=O)C(F)(F)C(F)(F)F)c2nsnc2c1OC(F)(F)F,-2782.880158,-2783.016502,7.8132,-9.2658213,-9.0266454,2.4699202400002243
1084,BTZ-Neutral-wb97xd-1975,COc1c(SC(F)(F)F)c(N(C(C)=O)C(F)(F)C(F)(F)F)c2nsnc2c1SC,-2808.177386,-2808.308603,10.4501,-8.398094400000002,-8.505846,2.330414570002886
1085,BTZ-Neutral-wb97xd-1976,COc1c(SC(F)(F)F)c(N(C(C)=O)C(F)(F)C(F)(F)F)c2nsnc2c1SC(F)(F)F,-3105.8505010000003,-3105.987632,4.6624,-9.2549373,-9.213306,2.4913345099863733
1086,BTZ-Neutral-wb97xd-1977,COc1c(SC(F)(F)F)c(N(C(C)=O)C(F)(F)C(F)(F)F)c2nsnc2c1Br,-4941.88644,-4942.019741,7.8079,-8.996170200000002,-8.9531784,2.387120209995828
1087,BTZ-Neutral-wb97xd-1978,COc1c(SC(F)(F)F)c(N(C(C)=O)C(F)(F)C(F)(F)F)c2nsnc2c1N(C)C,-2504.595975,-2504.7204039999997,11.6385,-7.474314899999999,-7.906409700000001,2.1457130899866392
1088,BTZ-Neutral-wb97xd-1979,COc1c(SC(F)(F)F)c(N(C(C)=O)C(F)(F)C(F)(F)F)c2nsnc2c1[N+](=O)[O-],-2575.152759,-2575.2951550000002,6.2057,-9.453298199999999,-9.3637773,2.6345951600051647
1090,BTZ-Neutral-wb97xd-1980,COc1c(SC(F)(F)F)c(N(C(C)=O)C(F)(F)C(F)(F)F)c2nsnc2c1S(=O)(=O)N(C)C,-3053.102866,-3053.238293,8.0722,-8.9613414,-8.956715699999998,2.444968669992072
1091,BTZ-Neutral-wb97xd-1981,CC(=O)N(c1c(SC(F)(F)F)c(OC(F)(F)F)c(C)c2nsnc12)C(F)(F)C(F)(F)F,-2707.707272,-2707.8361370000002,3.3176,-9.177933,-8.9749464,2.266416650003607
1092,BTZ-Neutral-wb97xd-1982,CC(=O)N(c1c(SC(F)(F)F)c(OC(F)(F)F)c(C(F)(F)F)c2nsnc12)C(F)(F)C(F)(F)F,-3005.372178,-3005.5156260000003,5.2459,-9.7781856,-9.4742499,2.663220080007136
1093,BTZ-Neutral-wb97xd-1983,CC(=O)N(c1c(SC(F)(F)F)c(OC(F)(F)F)c(C#N)c2nsnc12)C(F)(F)C(F)(F)F,-2760.6202329999996,-2760.7709839999998,7.7719,-9.724853999999999,-9.5254047,2.86193471000347
1094,BTZ-Neutral-wb97xd-1984,COc1c(OC(F)(F)F)c(SC(F)(F)F)c(N(C(C)=O)C(F)(F)C(F)(F)F)c2nsnc12,-2782.879531,-2783.010108,6.0819,-8.6043462,-8.5768641,2.313000169997358
1095,BTZ-Neutral-wb97xd-1985,CC(=O)N(c1c(SC(F)(F)F)c(OC(F)(F)F)c(OC(F)(F)F)c2nsnc12)C(F)(F)C(F)(F)F,-3080.570409,-3080.710437,5.1427,-9.5166975,-9.2380671,2.570161880006985
1096,BTZ-Neutral-wb97xd-1986,CSc1c(OC(F)(F)F)c(SC(F)(F)F)c(N(C(C)=O)C(F)(F)C(F)(F)F)c2nsnc12,-3105.865244,-3106.002115,8.8056,-8.697404400000002,-8.762708400000001,2.484259909991861
1097,BTZ-Neutral-wb97xd-1987,CC(=O)N(c1c(SC(F)(F)F)c(OC(F)(F)F)c(SC(F)(F)F)c2nsnc12)C(F)(F)C(F)(F)F,-3403.5374049999996,-3403.684725,5.4953,-9.6707061,-9.5352003,2.7685772000133557
1098,BTZ-Neutral-wb97xd-1988,CC(=O)N(c1c(SC(F)(F)F)c(OC(F)(F)F)c(Br)c2nsnc12)C(F)(F)C(F)(F)F,-5239.580118,-5239.71521,4.3106,-9.2524884,-9.004605300000001,2.4358533200119927
1099,BTZ-Neutral-wb97xd-1989,CC(=O)N(c1c(SC(F)(F)F)c(OC(F)(F)F)c(N(C)C)c2nsnc12)C(F)(F)C(F)(F)F,-2802.290675,-2802.415523,5.0608,-7.730088900000001,-8.165448900000001,2.1571140799980686
1101,BTZ-Neutral-wb97xd-1990,CC(=O)N(c1c(SC(F)(F)F)c(OC(F)(F)F)c([N+](=O)[O-])c2nsnc12)C(F)(F)C(F)(F)F,-2872.8430510000003,-2872.999542,3.3339999999999996,-9.7877091,-9.5928855,3.018120109992724
1102,BTZ-Neutral-wb97xd-1991,CC(=O)N(c1c(SC(F)(F)F)c(OC(F)(F)F)c(S(=O)(=O)N(C)C)c2nsnc12)C(F)(F)C(F)(F)F,-3350.79572,-3350.940541,8.4497,-9.2394276,-9.045420300000002,2.700579409996335
1103,BTZ-Neutral-wb97xd-1992,CSc1c(SC(F)(F)F)c(N(C(C)=O)C(F)(F)C(F)(F)F)c2nsnc2c1C,-2732.9974899999997,-2733.1264960000003,8.5329,-8.496050400000001,-8.4606774,2.2702532600155747
1104,BTZ-Neutral-wb97xd-1993,CSc1c(SC(F)(F)F)c(N(C(C)=O)C(F)(F)C(F)(F)F)c2nsnc2c1C(F)(F)F,-3030.664173,-3030.80263,5.0845,-8.7120978,-8.713458300000001,2.5274149700004545
1105,BTZ-Neutral-wb97xd-1994,CSc1c(SC(F)(F)F)c(N(C(C)=O)C(F)(F)C(F)(F)F)c2nsnc2c1C#N,-2785.917564,-2786.060389,5.0772,-8.7330495,-8.7327774,2.6462682500097205
1106,BTZ-Neutral-wb97xd-1995,COc1c(SC)c(SC(F)(F)F)c(N(C(C)=O)C(F)(F)C(F)(F)F)c2nsnc12,-2808.171681,-2808.29995,6.3078,-8.164360499999999,-8.3929245,2.2501994900074305
1107,BTZ-Neutral-wb97xd-1996,CSc1c(SC(F)(F)F)c(N(C(C)=O)C(F)(F)C(F)(F)F)c2nsnc2c1OC(F)(F)F,-3105.866793,-3106.006768,4.4835,-8.722709700000001,-8.6163186,2.568719750001346
1108,BTZ-Neutral-wb97xd-1997,CSc1c(SC(F)(F)F)c(N(C(C)=O)C(F)(F)C(F)(F)F)c2nsnc2c1SC,-3131.1594649999997,-3131.291526,10.8233,-8.165448900000001,-8.231297099999999,2.353379810006772
1109,BTZ-Neutral-wb97xd-1998,CSc1c(SC(F)(F)F)c(N(C(C)=O)C(F)(F)C(F)(F)F)c2nsnc2c1SC(F)(F)F,-3428.8324549999998,-3428.973303,4.5631,-8.557545000000001,-8.5608102,2.592474080012521
1110,BTZ-Neutral-wb97xd-1999,CSc1c(SC(F)(F)F)c(N(C(C)=O)C(F)(F)C(F)(F)F)c2nsnc2c1Br,-5264.871679,-5265.009417,6.1546,-8.557817100000001,-8.558089200000001,2.5078509800096347
1114,BTZ-Neutral-wb97xd-2000,CSc1c(SC(F)(F)F)c(N(C(C)=O)C(F)(F)C(F)(F)F)c2nsnc2c1N(C)C,-2827.578431,-2827.703848,6.306,-7.497171300000001,-7.9341639000000015,2.17259657000538
1115,BTZ-Neutral-wb97xd-2001,CSc1c(SC(F)(F)F)c(N(C(C)=O)C(F)(F)C(F)(F)F)c2nsnc2c1[N+](=O)[O-],-2898.137733,-2898.284006,2.6414,-8.954811000000003,-8.839984800000002,2.740088329995574
1116,BTZ-Neutral-wb97xd-2002,CSc1c(SC(F)(F)F)c(N(C(C)=O)C(F)(F)C(F)(F)F)c2nsnc2c1S(=O)(=O)N(C)C,-3376.087053,-3376.227995,9.1913,-8.5131927,-8.543123699999999,2.5950318199998765
1117,BTZ-Neutral-wb97xd-2003,CC(=O)N(c1c(SC(F)(F)F)c(SC(F)(F)F)c(C)c2nsnc12)C(F)(F)C(F)(F)F,-3030.665454,-3030.796833,3.6478,-9.2002452,-8.9578041,2.334822589997944
1118,BTZ-Neutral-wb97xd-2004,CC(=O)N(c1c(SC(F)(F)F)c(SC(F)(F)F)c(C(F)(F)F)c2nsnc12)C(F)(F)C(F)(F)F,-3328.329565,-3328.478202,5.1806,-9.547989,-9.4470399,2.8044127699940278
1119,BTZ-Neutral-wb97xd-2005,CC(=O)N(c1c(SC(F)(F)F)c(SC(F)(F)F)c(C#N)c2nsnc12)C(F)(F)C(F)(F)F,-3083.589848,-3083.744567,3.7153,-9.672066599999999,-9.5460843,2.969903990003095
1120,BTZ-Neutral-wb97xd-2006,COc1c(SC(F)(F)F)c(SC(F)(F)F)c(N(C(C)=O)C(F)(F)C(F)(F)F)c2nsnc12,-3105.850638,-3105.9810190000003,10.0205,-8.6851599,-8.784748500000001,2.3076670100108236
1121,BTZ-Neutral-wb97xd-2007,CC(=O)N(c1c(SC(F)(F)F)c(SC(F)(F)F)c(OC(F)(F)F)c2nsnc12)C(F)(F)C(F)(F)F,-3403.539226,-3403.685955,5.1367,-9.5934297,-9.5961507,2.752496090001369
1122,BTZ-Neutral-wb97xd-2008,CSc1c(SC(F)(F)F)c(SC(F)(F)F)c(N(C(C)=O)C(F)(F)C(F)(F)F)c2nsnc12,-3428.8353090000005,-3428.9674600000003,9.5346,-8.4620379,-8.6367261,2.3558287099944026
1123,BTZ-Neutral-wb97xd-2009,CC(=O)N(c1c(SC(F)(F)F)c(SC(F)(F)F)c(SC(F)(F)F)c2nsnc12)C(F)(F)C(F)(F)F,-3726.5030979999997,-3726.6518659999997,5.1763,-9.3724845,-9.470712599999999,2.807977280000496
1125,BTZ-Neutral-wb97xd-2010,CC(=O)N(c1c(SC(F)(F)F)c(SC(F)(F)F)c(Br)c2nsnc12)C(F)(F)C(F)(F)F,-5562.538423,-5562.679764,4.0513,-9.290582400000002,-9.1210641,2.6058886100126806
1126,BTZ-Neutral-wb97xd-2011,CC(=O)N(c1c(SC(F)(F)F)c(SC(F)(F)F)c(N(C)C)c2nsnc12)C(F)(F)C(F)(F)F,-3125.2513120000003,-3125.378597,5.4532,-7.843010400000001,-8.248167299999999,2.2234248499884144
1127,BTZ-Neutral-wb97xd-2012,CC(=O)N(c1c(SC(F)(F)F)c(SC(F)(F)F)c([N+](=O)[O-])c2nsnc12)C(F)(F)C(F)(F)F,-3195.8006170000003,-3195.953182,6.8339,-9.7327449,-9.5591451,2.9112936499964004
1128,BTZ-Neutral-wb97xd-2013,CC(=O)N(c1c(SC(F)(F)F)c(SC(F)(F)F)c(S(=O)(=O)N(C)C)c2nsnc12)C(F)(F)C(F)(F)F,-3673.754282,-3673.893412,10.2009,-9.2845962,-8.880527699999998,2.545727300000622
1129,BTZ-Neutral-wb97xd-2014,CC(=O)N(c1c(SC(F)(F)F)c(N(C)C)c(C)c2nsnc12)C(F)(F)C(F)(F)F,-2429.416217,-2429.540587,10.0489,-7.986951299999999,-8.013072900000001,2.1441076999999726
1130,BTZ-Neutral-wb97xd-2015,CC(=O)N(c1c(SC(F)(F)F)c(N(C)C)c(C(F)(F)F)c2nsnc12)C(F)(F)C(F)(F)F,-2727.0873239999996,-2727.223187,5.9159,-8.1311643,-8.175244500000002,2.4568322300116145
1131,BTZ-Neutral-wb97xd-2016,CC(=O)N(c1c(SC(F)(F)F)c(N(C)C)c(C#N)c2nsnc12)C(F)(F)C(F)(F)F,-2482.3399059999997,-2482.480403,5.8764,-8.2672143,-8.3912919,2.5829233700087935
1132,BTZ-Neutral-wb97xd-2017,COc1c(N(C)C)c(SC(F)(F)F)c(N(C(C)=O)C(F)(F)C(F)(F)F)c2nsnc12,-2504.592565,-2504.717433,9.4241,-8.035929300000001,-8.0933424,2.157658279996695
1133,BTZ-Neutral-wb97xd-2018,CC(=O)N(c1c(SC(F)(F)F)c(N(C)C)c(OC(F)(F)F)c2nsnc12)C(F)(F)C(F)(F)F,-2802.28597,-2802.416853,3.0819,-8.144497200000002,-8.3357835,2.3213264300072707
1134,BTZ-Neutral-wb97xd-2019,CSc1c(N(C)C)c(SC(F)(F)F)c(N(C(C)=O)C(F)(F)C(F)(F)F)c2nsnc12,-2827.580076,-2827.7086480000003,8.5094,-8.065044,-8.075655900000001,2.258444120002082
1136,BTZ-Neutral-wb97xd-2020,CC(=O)N(c1c(SC(F)(F)F)c(N(C)C)c(SC(F)(F)F)c2nsnc12)C(F)(F)C(F)(F)F,-3125.252255,-3125.388607,7.4052,-8.216331599999998,-8.221501499999999,2.470137919999675
1137,BTZ-Neutral-wb97xd-2021,CC(=O)N(c1c(SC(F)(F)F)c(N(C)C)c(Br)c2nsnc12)C(F)(F)C(F)(F)F,-4961.2942299999995,-4961.423009,2.3045,-8.108035800000001,-8.246534700000002,2.2640765900157023
1138,BTZ-Neutral-wb97xd-2022,CC(=O)N(c1c(SC(F)(F)F)c(N(C)C)c(N(C)C)c2nsnc12)C(F)(F)C(F)(F)F,-2524.000755,-2524.1229350000003,9.2463,-7.958925,-8.000556300000001,2.0845178000081255
1139,BTZ-Neutral-wb97xd-2023,CC(=O)N(c1c(SC(F)(F)F)c(N(C)C)c([N+](=O)[O-])c2nsnc12)C(F)(F)C(F)(F)F,-2594.563681,-2594.7046,4.5482,-8.272656300000001,-8.411427300000001,2.5944059899983634
1140,BTZ-Neutral-wb97xd-2024,CC(=O)N(c1c(SC(F)(F)F)c(N(C)C)c(S(=O)(=O)N(C)C)c2nsnc12)C(F)(F)C(F)(F)F,-3072.508087,-3072.644659,10.0258,-8.205991800000001,-8.2734726,2.4761241199969346
1141,BTZ-Neutral-wb97xd-2025,CC(=O)N(c1c(N(C)C)c(C)c(C)c2nsnc12)C(F)(F)C(F)(F)F,-1733.5779100000002,-1733.684109,6.178999999999999,-7.677029400000001,-7.867499400000002,1.649674789995461
1142,BTZ-Neutral-wb97xd-2026,CC(=O)N(c1c(N(C)C)c(C)c(C(F)(F)F)c2nsnc12)C(F)(F)C(F)(F)F,-2031.2543440000002,-2031.377664,6.776,-7.974162599999999,-8.054160000000001,2.1155371999978643
1143,BTZ-Neutral-wb97xd-2027,CC(=O)N(c1c(N(C)C)c(C)c(C#N)c2nsnc12)C(F)(F)C(F)(F)F,-1786.506414,-1786.6368989999999,6.1191,-8.043275999999999,-8.0857236,2.3104968499974916
1144,BTZ-Neutral-wb97xd-2028,COc1c(C)c(N(C)C)c(N(C(C)=O)C(F)(F)C(F)(F)F)c2nsnc12,-1808.756489,-1808.8693690000002,8.8989,-7.831038,-7.828861199999999,1.8314648000035916
1145,BTZ-Neutral-wb97xd-2029,CC(=O)N(c1c(N(C)C)c(C)c(OC(F)(F)F)c2nsnc12)C(F)(F)C(F)(F)F,-2106.450008,-2106.5687420000004,7.8961,-7.740156599999999,-8.035113,1.9907521400159476
1147,BTZ-Neutral-wb97xd-2030,CSc1c(C)c(N(C)C)c(N(C(C)=O)C(F)(F)C(F)(F)F)c2nsnc12,-2131.743614,-2131.860077,8.953,-7.826412299999999,-7.900967700000002,1.9289582299956376
1148,BTZ-Neutral-wb97xd-2031,CC(=O)N(c1c(N(C)C)c(C)c(SC(F)(F)F)c2nsnc12)C(F)(F)C(F)(F)F,-2429.422947,-2429.543227,7.1329,-7.856615400000001,-8.0076309,2.0328188000025422
1149,BTZ-Neutral-wb97xd-2032,CC(=O)N(c1c(N(C)C)c(C)c(Br)c2nsnc12)C(F)(F)C(F)(F)F,-4265.460932,-4265.578824,7.6451,-7.841377799999999,-7.983686100000001,1.9678413200057367
1150,BTZ-Neutral-wb97xd-2033,CC(=O)N(c1c(N(C)C)c(C)c(N(C)C)c2nsnc12)C(F)(F)C(F)(F)F,-1828.1646059999998,-1828.2725699999999,10.6644,-7.265342100000002,-7.789406700000002,1.6977004400010378
1151,BTZ-Neutral-wb97xd-2034,CC(=O)N(c1c(N(C)C)c(C)c([N+](=O)[O-])c2nsnc12)C(F)(F)C(F)(F)F,-1898.7274079999997,-1898.858225,8.9434,-7.931442900000001,-8.2027266,2.319530570005618
1152,BTZ-Neutral-wb97xd-2035,CC(=O)N(c1c(N(C)C)c(C)c(S(=O)(=O)N(C)C)c2nsnc12)C(F)(F)C(F)(F)F,-2376.672089,-2376.794959,8.3982,-7.861241099999999,-8.1464019,2.1032926999916572
1153,BTZ-Neutral-wb97xd-2036,CC(=O)N(c1c(N(C)C)c(C(F)(F)F)c(C)c2nsnc12)C(F)(F)C(F)(F)F,-2031.251064,-2031.371523,6.2527,-7.7758017000000015,-8.1235455,2.0376893899995254
1154,BTZ-Neutral-wb97xd-2037,CC(=O)N(c1c(N(C)C)c(C(F)(F)F)c(C(F)(F)F)c2nsnc12)C(F)(F)C(F)(F)F,-2328.917851,-2329.054344,3.5032,-8.0511669,-8.113749900000002,2.4739745299992686
1155,BTZ-Neutral-wb97xd-2038,CC(=O)N(c1c(N(C)C)c(C(F)(F)F)c(C#N)c2nsnc12)C(F)(F)C(F)(F)F,-2084.1721850000004,-2084.31533,3.1086,-8.2375554,-8.255514,2.654975449987737
1156,BTZ-Neutral-wb97xd-2039,COc1c(C(F)(F)F)c(N(C)C)c(N(C(C)=O)C(F)(F)C(F)(F)F)c2nsnc12,-2106.423577,-2106.545885,1.5729,-7.6647849,-7.992665400000001,2.0880006799993316
1158,BTZ-Neutral-wb97xd-2040,CC(=O)N(c1c(N(C)C)c(C(F)(F)F)c(OC(F)(F)F)c2nsnc12)C(F)(F)C(F)(F)F,-2404.11539,-2404.246462,6.3385,-7.8642342,-8.1447693,2.3264691200035665
1159,BTZ-Neutral-wb97xd-2041,CSc1c(C(F)(F)F)c(N(C)C)c(N(C(C)=O)C(F)(F)C(F)(F)F)c2nsnc12,-2429.411693,-2429.541882,6.2792,-7.884641700000001,-7.9981073999999985,2.302442689999266
1160,BTZ-Neutral-wb97xd-2042,CC(=O)N(c1c(N(C)C)c(C(F)(F)F)c(SC(F)(F)F)c2nsnc12)C(F)(F)C(F)(F)F,-2727.081239,-2727.219912,4.252,-7.936340700000001,-8.169258300000001,2.5332923299979893
1161,BTZ-Neutral-wb97xd-2043,CC(=O)N(c1c(N(C)C)c(C(F)(F)F)c(Br)c2nsnc12)C(F)(F)C(F)(F)F,-4563.126349,-4563.256788000001,4.2153,-7.992665400000001,-8.094975,2.3092451900130255
1162,BTZ-Neutral-wb97xd-2044,CC(=O)N(c1c(N(C)C)c(C(F)(F)F)c(N(C)C)c2nsnc12)C(F)(F)C(F)(F)F,-2125.840004,-2125.957782,9.3845,-7.4166297000000005,-7.928721899999999,1.964739379995008
1163,BTZ-Neutral-wb97xd-2045,CC(=O)N(c1c(N(C)C)c(C(F)(F)F)c([N+](=O)[O-])c2nsnc12)C(F)(F)C(F)(F)F,-2196.3915469999997,-2196.53415,8.1153,-8.0693976,-8.313471300000002,2.640227630006412
1164,BTZ-Neutral-wb97xd-2046,CC(=O)N(c1c(N(C)C)c(C(F)(F)F)c(S(=O)(=O)N(C)C)c2nsnc12)C(F)(F)C(F)(F)F,-2674.342181,-2674.479888,2.8078,-7.915389,-7.904504999999999,2.5070074699962968
1165,BTZ-Neutral-wb97xd-2047,CC(=O)N(c1c(N(C)C)c(C#N)c(C)c2nsnc12)C(F)(F)C(F)(F)F,-1786.509434,-1786.633444,3.0879,-7.9227357000000005,-8.272656300000001,2.1343120999999563
1166,BTZ-Neutral-wb97xd-2048,CC(=O)N(c1c(N(C)C)c(C#N)c(C(F)(F)F)c2nsnc12)C(F)(F)C(F)(F)F,-2084.176128,-2084.318675,2.9045,-8.253337199999999,-8.382312599999999,2.638703869997885
1167,BTZ-Neutral-wb97xd-2049,CC(=O)N(c1c(N(C)C)c(C#N)c(C#N)c2nsnc12)C(F)(F)C(F)(F)F,-1839.4243989999998,-1839.571273,9.7296,-8.124633900000001,-8.466391499999999,2.7564415400068745
1169,BTZ-Neutral-wb97xd-2050,COc1c(C#N)c(N(C)C)c(N(C(C)=O)C(F)(F)C(F)(F)F)c2nsnc12,-1861.6892850000002,-1861.812708,5.3715,-7.901239800000001,-8.2546977,2.1183398299938814
1170,BTZ-Neutral-wb97xd-2051,CC(=O)N(c1c(N(C)C)c(C#N)c(OC(F)(F)F)c2nsnc12)C(F)(F)C(F)(F)F,-2159.374725,-2159.514116,2.859,-8.223406200000001,-8.323811099999999,2.552829109991972
1171,BTZ-Neutral-wb97xd-2052,CSc1c(C#N)c(N(C)C)c(N(C(C)=O)C(F)(F)C(F)(F)F)c2nsnc12,-2184.6732629999997,-2184.8045230000002,4.8954,-7.9311708,-8.2546977,2.3315846000153986
1172,BTZ-Neutral-wb97xd-2053,CC(=O)N(c1c(N(C)C)c(C#N)c(SC(F)(F)F)c2nsnc12)C(F)(F)C(F)(F)F,-2482.342972,-2482.480696,6.9886,-8.123817599999999,-8.4092505,2.507470040004409
1173,BTZ-Neutral-wb97xd-2054,CC(=O)N(c1c(N(C)C)c(C#N)c(Br)c2nsnc12)C(F)(F)C(F)(F)F,-4318.383225,-4318.516138,5.5928,-8.039466599999999,-8.3991828,2.37656273001011
1174,BTZ-Neutral-wb97xd-2055,CC(=O)N(c1c(N(C)C)c(C#N)c(N(C)C)c2nsnc12)C(F)(F)C(F)(F)F,-1881.0942300000002,-1881.218571,8.6465,-7.6865529000000015,-8.2601397,2.143318609998871
1175,BTZ-Neutral-wb97xd-2056,CC(=O)N(c1c(N(C)C)c(C#N)c([N+](=O)[O-])c2nsnc12)C(F)(F)C(F)(F)F,-1951.647334,-1951.800805,9.7952,-8.186672699999999,-8.4672078,2.935945910002215
1176,BTZ-Neutral-wb97xd-2057,CC(=O)N(c1c(N(C)C)c(C#N)c(S(=O)(=O)N(C)C)c2nsnc12)C(F)(F)C(F)(F)F,-2429.595458,-2429.736755,10.3158,-8.1578301,-8.3308857,2.604691370003329
1177,BTZ-Neutral-wb97xd-2058,COc1c(N(C)C)c(N(C(C)=O)C(F)(F)C(F)(F)F)c2nsnc2c1C,-1808.7555739999998,-1808.8651559999998,7.2102,-7.596215699999999,-8.150755499999999,1.7417262200012467
1178,BTZ-Neutral-wb97xd-2059,COc1c(N(C)C)c(N(C(C)=O)C(F)(F)C(F)(F)F)c2nsnc2c1C(F)(F)F,-2106.429929,-2106.555125,6.3573,-8.0993286,-8.318097000000002,2.1665831599989085
1180,BTZ-Neutral-wb97xd-2060,COc1c(N(C)C)c(N(C(C)=O)C(F)(F)C(F)(F)F)c2nsnc2c1C#N,-1861.6861350000001,-1861.813823,8.6211,-7.880016000000001,-8.2307529,2.2343904799947563
1181,BTZ-Neutral-wb97xd-2061,COc1c(N(C)C)c(N(C(C)=O)C(F)(F)C(F)(F)F)c2nsnc2c1OC,-1883.9298620000002,-1884.048193,8.93,-7.7461428,-8.0503506,1.979786509997232