,File Name,SMILES,Neutral Free Energy,Reduced Free Energy,Neutral Dipole moment,Neutral HOMO_Opt,Neutral HOMO_Unopt,Red Pot Li/Li+ (V)
408,BTZ-Neutral-wb97xd-1366,CCOCN(C(C)=O)c1c(N(C)C)c(OC(F)(F)F)c(C(F)(F)F)c2nsnc12,-2022.471713,-2022.5951940000002,9.7741,-7.933075499999998,-8.146674,2.1199180100084574
409,BTZ-Neutral-wb97xd-1367,CCOCN(C(C)=O)c1c(N(C)C)c(OC(F)(F)F)c(C#N)c2nsnc12,-1777.7256969999999,-1777.8558460000002,13.4865,-7.834303200000001,-8.040555,2.3013542900082005
410,BTZ-Neutral-wb97xd-1368,CCOCN(C(C)=O)c1c(N(C)C)c(OC(F)(F)F)c(OC)c2nsnc12,-1799.9704219999999,-1800.086784,8.3108,-7.613902200000001,-7.9804209,1.9262100200056695
411,BTZ-Neutral-wb97xd-1369,CCOCN(C(C)=O)c1c(N(C)C)c(OC(F)(F)F)c(OC(F)(F)F)c2nsnc12,-2097.660429,-2097.786027,9.1671,-8.160551100000001,-8.138511,2.1775215800022263
413,BTZ-Neutral-wb97xd-1370,CCOCN(C(C)=O)c1c(N(C)C)c(OC(F)(F)F)c(SC)c2nsnc12,-2122.965111,-2123.082313,7.4142,-7.8443709,-8.1668094,1.9490664199974572
414,BTZ-Neutral-wb97xd-1371,CCOCN(C(C)=O)c1c(N(C)C)c(OC(F)(F)F)c(SC(F)(F)F)c2nsnc12,-2420.632451,-2420.759661,9.052,-8.245174200000001,-8.2508883,2.2213841000028474
415,BTZ-Neutral-wb97xd-1372,CCOCN(C(C)=O)c1c(N(C)C)c(OC(F)(F)F)c(Br)c2nsnc12,-4256.675258,-4256.796894,4.9226,-7.717300199999999,-8.210345400000001,2.069715559996003
416,BTZ-Neutral-wb97xd-1373,CCOCN(C(C)=O)c1c(N(C)C)c(OC(F)(F)F)c(N(C)C)c2nsnc12,-1819.3882170000002,-1819.494256,8.8475,-7.2343227,-7.6544451,1.645321189994079
417,BTZ-Neutral-wb97xd-1374,CCOCN(C(C)=O)c1c(N(C)C)c(OC(F)(F)F)c([N+](=O)[O-])c2nsnc12,-1889.944411,-1890.082575,13.1393,-8.105858999999999,-8.130348,2.5194424399989295
418,BTZ-Neutral-wb97xd-1375,CCOCN(C(C)=O)c1c(N(C)C)c(OC(F)(F)F)c(S(=O)(=O)N(C)C)c2nsnc12,-2367.891721,-2368.016107,12.9205,-8.0239569,-8.0062704,2.144543059998873
419,BTZ-Neutral-wb97xd-1376,CCOCN(C(C)=O)c1c(N(C)C)c(SC)c(C)c2nsnc12,-1750.08461,-1750.198151,2.7462,-7.8070932000000015,-7.863145800000002,1.849450609998396
420,BTZ-Neutral-wb97xd-1377,CCOCN(C(C)=O)c1c(N(C)C)c(SC)c(C(F)(F)F)c2nsnc12,-2047.755882,-2047.8774460000002,11.4125,-7.9107633,-8.080281600000001,2.0677564400071358
421,BTZ-Neutral-wb97xd-1378,CCOCN(C(C)=O)c1c(N(C)C)c(SC)c(C#N)c2nsnc12,-1803.012167,-1803.1414719999998,12.2496,-7.9556597999999985,-7.902872400000001,2.27838904999194
422,BTZ-Neutral-wb97xd-1379,CCOCN(C(C)=O)c1c(N(C)C)c(SC)c(OC)c2nsnc12,-1825.2588230000001,-1825.3718559999998,3.0053,-7.758387299999999,-7.7039672999999995,1.8356279299899871
424,BTZ-Neutral-wb97xd-1380,CCOCN(C(C)=O)c1c(N(C)C)c(SC)c(OC(F)(F)F)c2nsnc12,-2122.962023,-2123.079964,9.9742,-7.721109600000001,-7.9940259,1.9691746099992773
425,BTZ-Neutral-wb97xd-1381,CCOCN(C(C)=O)c1c(N(C)C)c(SC)c(SC)c2nsnc12,-2148.247661,-2148.3652690000004,5.6918,-7.740700800000001,-7.705872,1.9601136800128736
426,BTZ-Neutral-wb97xd-1382,CCOCN(C(C)=O)c1c(N(C)C)c(SC)c(SC(F)(F)F)c2nsnc12,-2445.92399,-2446.0472170000003,5.445,-7.693355400000001,-8.0285826,2.113006670013533
427,BTZ-Neutral-wb97xd-1383,CCOCN(C(C)=O)c1c(N(C)C)c(SC)c(Br)c2nsnc12,-4281.969353,-4282.083856,9.1013,-7.6568939999999985,-7.9581087,1.8756266299941762
428,BTZ-Neutral-wb97xd-1384,CCOCN(C(C)=O)c1c(N(C)C)c(SC)c(N(C)C)c2nsnc12,-1844.67003,-1844.778564,7.2185,-7.560026400000001,-7.7268237000000015,1.7132101399990007
429,BTZ-Neutral-wb97xd-1385,CCOCN(C(C)=O)c1c(N(C)C)c(SC)c([N+](=O)[O-])c2nsnc12,-1915.2373530000002,-1915.367593,7.4233,-7.759747799999999,-7.7627409,2.303830399992669
430,BTZ-Neutral-wb97xd-1386,CCOCN(C(C)=O)c1c(N(C)C)c(SC)c(S(=O)(=O)N(C)C)c2nsnc12,-2393.181747,-2393.300341,11.5183,-7.8021954,-7.8051885,1.9869427400008182
431,BTZ-Neutral-wb97xd-1387,CCOCN(C(C)=O)c1c(N(C)C)c(SC(F)(F)F)c(C)c2nsnc12,-2047.7605859999999,-2047.8790760000002,3.6384,-8.031031500000001,-8.022052200000001,1.9841129000079627
432,BTZ-Neutral-wb97xd-1388,CCOCN(C(C)=O)c1c(N(C)C)c(SC(F)(F)F)c(C(F)(F)F)c2nsnc12,-2345.434386,-2345.562602,11.5702,-7.9855908000000015,-8.080281600000001,2.2487573600017914
433,BTZ-Neutral-wb97xd-1389,CCOCN(C(C)=O)c1c(N(C)C)c(SC(F)(F)F)c(C#N)c2nsnc12,-2100.688663,-2100.8245620000002,6.4487,-8.0000121,-8.1888495,2.457811790009141
435,BTZ-Neutral-wb97xd-1390,CCOCN(C(C)=O)c1c(N(C)C)c(SC(F)(F)F)c(OC)c2nsnc12,-2122.941859,-2123.056931,4.7804,-7.6411122,-7.990216500000002,1.8911091200014882
436,BTZ-Neutral-wb97xd-1391,CCOCN(C(C)=O)c1c(N(C)C)c(SC(F)(F)F)c(OC(F)(F)F)c2nsnc12,-2420.631228,-2420.759505,2.4343,-8.176877099999999,-8.127899099999999,2.250417169994507
437,BTZ-Neutral-wb97xd-1392,CCOCN(C(C)=O)c1c(N(C)C)c(SC(F)(F)F)c(SC)c2nsnc12,-2445.925546,-2446.047026,3.3985,-7.748319599999999,-7.952394600000001,2.06547080000672
438,BTZ-Neutral-wb97xd-1393,CCOCN(C(C)=O)c1c(N(C)C)c(SC(F)(F)F)c(SC(F)(F)F)c2nsnc12,-2743.597773,-2743.730066,4.9871,-7.8016511999999985,-8.052799499999999,2.3596925300032083
439,BTZ-Neutral-wb97xd-1394,CCOCN(C(C)=O)c1c(N(C)C)c(SC(F)(F)F)c(Br)c2nsnc12,-4579.6395299999995,-4579.76535,3.9966,-7.812263099999999,-8.079737399999999,2.183562200005536
440,BTZ-Neutral-wb97xd-1395,CCOCN(C(C)=O)c1c(N(C)C)c(SC(F)(F)F)c(N(C)C)c2nsnc12,-2142.349385,-2142.46277,9.0281,-7.2939126,-7.2944568,1.845205850002926
441,BTZ-Neutral-wb97xd-1396,CCOCN(C(C)=O)c1c(N(C)C)c(SC(F)(F)F)c([N+](=O)[O-])c2nsnc12,-2212.90892,-2213.05057,4.7061,-8.035113,-8.179053900000001,2.6142965000007328
442,BTZ-Neutral-wb97xd-1397,CCOCN(C(C)=O)c1c(N(C)C)c(SC(F)(F)F)c(S(=O)(=O)N(C)C)c2nsnc12,-2690.852456,-2690.984405,14.4694,-7.9518504,-7.973618400000001,2.3503322900020933
443,BTZ-Neutral-wb97xd-1398,CCOCN(C(C)=O)c1c(N(C)C)c(N(C)C)c(C)c2nsnc12,-1446.50587,-1446.6080880000002,11.3015,-7.3205784,-7.629683999999999,1.5413517800060095
444,BTZ-Neutral-wb97xd-1399,CCOCN(C(C)=O)c1c(N(C)C)c(N(C)C)c(C(F)(F)F)c2nsnc12,-1744.1857289999998,-1744.2960469999998,11.3797,-7.525469699999999,-7.9605576000000005,1.7617527800001789
447,BTZ-Neutral-wb97xd-1400,CCOCN(C(C)=O)c1c(N(C)C)c(N(C)C)c(C#N)c2nsnc12,-1499.4390019999998,-1499.555668,15.9438,-7.5760803,-7.576352400000001,1.9344818600033455
448,BTZ-Neutral-wb97xd-1401,CCOCN(C(C)=O)c1c(N(C)C)c(N(C)C)c(OC)c2nsnc12,-1521.682257,-1521.789066,10.7134,-7.3847939999999985,-7.3847939999999985,1.6662728900030495
449,BTZ-Neutral-wb97xd-1402,CCOCN(C(C)=O)c1c(N(C)C)c(N(C)C)c(OC(F)(F)F)c2nsnc12,-1819.383425,-1819.493268,10.748,-7.4960829,-7.602746099999999,1.7488280299987833
450,BTZ-Neutral-wb97xd-1403,CCOCN(C(C)=O)c1c(N(C)C)c(N(C)C)c(SC)c2nsnc12,-1844.6707440000002,-1844.777961,12.3843,-7.3943175000000005,-7.7847810000000015,1.677374569993581
451,BTZ-Neutral-wb97xd-1404,CCOCN(C(C)=O)c1c(N(C)C)c(N(C)C)c(SC(F)(F)F)c2nsnc12,-2142.3486940000003,-2142.462434,13.165999999999999,-7.488736200000001,-7.8971583,1.8548653999940055
452,BTZ-Neutral-wb97xd-1405,CCOCN(C(C)=O)c1c(N(C)C)c(N(C)C)c(Br)c2nsnc12,-3978.388246,-3978.4996079999996,10.2999,-7.4710497,-7.8737577,1.7901600199903263
453,BTZ-Neutral-wb97xd-1406,CCOCN(C(C)=O)c1c(N(C)C)c(N(C)C)c(N(C)C)c2nsnc12,-1541.0843029999999,-1541.1934099999999,6.6415,-7.682471400000001,-7.547781900000001,1.7288014699998506
454,BTZ-Neutral-wb97xd-1407,CCOCN(C(C)=O)c1c(N(C)C)c(N(C)C)c([N+](=O)[O-])c2nsnc12,-1611.6626609999998,-1611.781043,15.1386,-7.621521,-7.9668159,1.9811742200030087
455,BTZ-Neutral-wb97xd-1408,CCOCN(C(C)=O)c1c(N(C)C)c(N(C)C)c(S(=O)(=O)N(C)C)c2nsnc12,-2089.6085120000002,-2089.718247,6.3188,-7.535537400000001,-7.720293300000001,1.7458893499876422
456,BTZ-Neutral-wb97xd-1409,CC(=O)N(c1c(C)c(C)c(C)c2nsnc12)C(F)(F)C(F)(F)F,-1638.996314,-1639.104877,4.9066,-8.4304743,-8.293880099999999,1.7139992300001017
458,BTZ-Neutral-wb97xd-1410,CC(=O)N(c1c(C)c(C)c(C(F)(F)F)c2nsnc12)C(F)(F)C(F)(F)F,-1936.670355,-1936.790416,6.2993,-9.0633789,-8.9175333,2.0268598100021205
459,BTZ-Neutral-wb97xd-1411,CC(=O)N(c1c(C)c(C)c(C#N)c2nsnc12)C(F)(F)C(F)(F)F,-1691.922382,-1692.0491780000002,8.4152,-9.0413388,-8.875357800000002,2.210119160006541
460,BTZ-Neutral-wb97xd-1412,COc1c(C)c(C)c(N(C(C)=O)C(F)(F)C(F)(F)F)c2nsnc12,-1714.1726879999999,-1714.283435,4.4806,-8.477275500000001,-8.009807700000001,1.7734258700047352
461,BTZ-Neutral-wb97xd-1413,CC(=O)N(c1c(C)c(C)c(OC(F)(F)F)c2nsnc12)C(F)(F)C(F)(F)F,-2011.8739670000002,-2011.9929399999999,6.5855,-8.9447433,-8.619039599999999,1.9972553299902487
462,BTZ-Neutral-wb97xd-1414,CSc1c(C)c(C)c(N(C(C)=O)C(F)(F)C(F)(F)F)c2nsnc12,-2037.1649710000002,-2037.279293,7.1009,-8.2685748,-8.388026700000001,1.8707016199973305
463,BTZ-Neutral-wb97xd-1415,CC(=O)N(c1c(C)c(C)c(SC(F)(F)F)c2nsnc12)C(F)(F)C(F)(F)F,-2334.838902,-2334.959214,5.8821,-9.0797049,-8.855766599999999,2.033689520000344
464,BTZ-Neutral-wb97xd-1416,CC(=O)N(c1c(C)c(C)c(Br)c2nsnc12)C(F)(F)C(F)(F)F,-4170.878635,-4170.995636,7.2638,-8.6737317,-8.5507425,1.9435972099896117
465,BTZ-Neutral-wb97xd-1417,CC(=O)N(c1c(C)c(C)c(N(C)C)c2nsnc12)C(F)(F)C(F)(F)F,-1733.5766600000002,-1733.68656,3.5589,-7.6593429,-8.1298038,1.750378999997961
466,BTZ-Neutral-wb97xd-1418,CC(=O)N(c1c(C)c(C)c([N+](=O)[O-])c2nsnc12)C(F)(F)C(F)(F)F,-1804.144927,-1804.2749420000002,7.6613,-9.1199757,-8.891139599999999,2.2977081500050325
467,BTZ-Neutral-wb97xd-1419,CC(=O)N(c1c(C)c(C)c(S(=O)(=O)N(C)C)c2nsnc12)C(F)(F)C(F)(F)F,-2282.0959550000002,-2282.217733,6.0956,-8.994537600000003,-8.832366,2.0735793799924345
469,BTZ-Neutral-wb97xd-1420,CC(=O)N(c1c(C)c(C(F)(F)F)c(C)c2nsnc12)C(F)(F)C(F)(F)F,-1936.668461,-1936.788533,1.2670000000000001,-8.8993026,-8.899574699999999,2.027159119998271
470,BTZ-Neutral-wb97xd-1421,CC(=O)N(c1c(C)c(C(F)(F)F)c(C(F)(F)F)c2nsnc12)C(F)(F)C(F)(F)F,-2234.334042,-2234.46921,5.7779,-9.3814638,-9.2492232,2.4379212800067718
471,BTZ-Neutral-wb97xd-1422,CC(=O)N(c1c(C)c(C(F)(F)F)c(C#N)c2nsnc12)C(F)(F)C(F)(F)F,-1989.5908989999998,-1989.7339579999998,7.607,-9.436428,-9.2089524,2.6526353899998325
472,BTZ-Neutral-wb97xd-1423,COc1c(C(F)(F)F)c(C)c(N(C(C)=O)C(F)(F)C(F)(F)F)c2nsnc12,-2011.8451120000002,-2011.96777,2.9238,-8.495778300000001,-8.530607100000001,2.0975241799938473
473,BTZ-Neutral-wb97xd-1424,CC(=O)N(c1c(C)c(C(F)(F)F)c(OC(F)(F)F)c2nsnc12)C(F)(F)C(F)(F)F,-2309.541559,-2309.675966,3.2003,-9.2862288,-9.0301827,2.4172144700002764
474,BTZ-Neutral-wb97xd-1425,CSc1c(C(F)(F)F)c(C)c(N(C(C)=O)C(F)(F)C(F)(F)F)c2nsnc12,-2334.834182,-2334.961797,6.2767,-8.4492492,-8.637542400000001,2.232404149996678
475,BTZ-Neutral-wb97xd-1426,CC(=O)N(c1c(C)c(C(F)(F)F)c(SC(F)(F)F)c2nsnc12)C(F)(F)C(F)(F)F,-2632.5036170000003,-2632.641722,2.6289,-9.2693586,-9.112629,2.5178370499875156
476,BTZ-Neutral-wb97xd-1427,CC(=O)N(c1c(C)c(C(F)(F)F)c(Br)c2nsnc12)C(F)(F)C(F)(F)F,-4468.544198,-4468.674346,3.6634,-9.0598416,-8.8799835,2.3013270800051764
477,BTZ-Neutral-wb97xd-1428,CC(=O)N(c1c(C)c(C(F)(F)F)c(N(C)C)c2nsnc12)C(F)(F)C(F)(F)F,-2031.25365,-2031.377904,5.9784,-8.337960299999999,-8.514825300000002,2.140951339995568
478,BTZ-Neutral-wb97xd-1429,CC(=O)N(c1c(C)c(C(F)(F)F)c([N+](=O)[O-])c2nsnc12)C(F)(F)C(F)(F)F,-2101.813132,-2101.954886,7.6764,-9.4464957,-9.0712698,2.617126339993588
480,BTZ-Neutral-wb97xd-1430,CC(=O)N(c1c(C)c(C(F)(F)F)c(S(=O)(=O)N(C)C)c2nsnc12)C(F)(F)C(F)(F)F,-2579.754098,-2579.890157,6.212000000000001,-9.0878679,-8.9980749,2.462165389998149
481,BTZ-Neutral-wb97xd-1431,CC(=O)N(c1c(C)c(C#N)c(C)c2nsnc12)C(F)(F)C(F)(F)F,-1691.926666,-1692.0508510000002,3.3885,-8.9382129,-8.7072,2.1390738500034017
482,BTZ-Neutral-wb97xd-1432,CC(=O)N(c1c(C)c(C#N)c(C(F)(F)F)c2nsnc12)C(F)(F)C(F)(F)F,-1989.5959010000001,-1989.7391350000003,3.0468,-9.4274487,-9.3210576,2.657397140003277
483,BTZ-Neutral-wb97xd-1433,CC(=O)N(c1c(C)c(C#N)c(C#N)c2nsnc12)C(F)(F)C(F)(F)F,-1744.843591,-1744.992118,8.7838,-9.482685,-9.263372400000002,2.801419669995398
484,BTZ-Neutral-wb97xd-1434,COc1c(C#N)c(C)c(N(C(C)=O)C(F)(F)C(F)(F)F)c2nsnc12,-1767.1064649999998,-1767.233234,7.4409,-8.4851664,-8.5044855,2.209384490005302
485,BTZ-Neutral-wb97xd-1435,CC(=O)N(c1c(C)c(C#N)c(OC(F)(F)F)c2nsnc12)C(F)(F)C(F)(F)F,-2064.793874,-2064.9310809999997,6.0047,-9.331125300000002,-9.006782099999999,2.4934024699935255
486,BTZ-Neutral-wb97xd-1436,CSc1c(C#N)c(C)c(N(C(C)=O)C(F)(F)C(F)(F)F)c2nsnc12,-2090.0929260000003,-2090.225167,5.6437,-8.451426,-8.7455661,2.358277609994407
487,BTZ-Neutral-wb97xd-1437,CC(=O)N(c1c(C)c(C#N)c(SC(F)(F)F)c2nsnc12)C(F)(F)C(F)(F)F,-2387.762775,-2387.9057399999997,4.185,-9.425544,-9.2780658,2.650077649987729
488,BTZ-Neutral-wb97xd-1438,CC(=O)N(c1c(C)c(C#N)c(Br)c2nsnc12)C(F)(F)C(F)(F)F,-4223.802542,-4223.939796,3.8512,-9.146369400000001,-9.0424272,2.4946813399810166
489,BTZ-Neutral-wb97xd-1439,CC(=O)N(c1c(C)c(C#N)c(N(C)C)c2nsnc12)C(F)(F)C(F)(F)F,-1786.515332,-1786.637069,3.8603,-7.740972900000001,-8.3504769,2.072463770004531
491,BTZ-Neutral-wb97xd-1440,CC(=O)N(c1c(C)c(C#N)c([N+](=O)[O-])c2nsnc12)C(F)(F)C(F)(F)F,-1857.064682,-1857.2213,8.3774,-9.5961507,-9.3066363,3.0215757799994662
492,BTZ-Neutral-wb97xd-1441,CC(=O)N(c1c(C)c(C#N)c(S(=O)(=O)N(C)C)c2nsnc12)C(F)(F)C(F)(F)F,-2335.018055,-2335.162132,7.8134,-9.1858239,-9.068548800000002,2.680335169997952
493,BTZ-Neutral-wb97xd-1442,COc1c(C)c(N(C(C)=O)C(F)(F)C(F)(F)F)c2nsnc2c1C,-1714.178732,-1714.2920170000002,8.3938,-8.564891699999999,-8.405985300000001,1.8424848500036093
494,BTZ-Neutral-wb97xd-1443,COc1c(C)c(N(C(C)=O)C(F)(F)C(F)(F)F)c2nsnc2c1C(F)(F)F,-2011.851296,-2011.9710739999998,6.8549,-9.171674699999999,-9.054671699999998,2.019159379993721
495,BTZ-Neutral-wb97xd-1444,COc1c(C)c(N(C(C)=O)C(F)(F)C(F)(F)F)c2nsnc2c1C#N,-1767.099415,-1767.228948,8.7096,-9.1123569,-8.997802799999997,2.2845929300010246
496,BTZ-Neutral-wb97xd-1445,COc1c(C)c(N(C(C)=O)C(F)(F)C(F)(F)F)c2nsnc2c1OC,-1789.3523969999999,-1789.4658,8.0966,-8.179053900000001,-8.1104847,1.8456956300016898
497,BTZ-Neutral-wb97xd-1446,COc1c(C)c(N(C(C)=O)C(F)(F)C(F)(F)F)c2nsnc2c1OC(F)(F)F,-2087.0461969999997,-2087.16456,6.3193,-8.9607972,-8.7708714,1.980657230013594
498,BTZ-Neutral-wb97xd-1447,COc1c(C)c(N(C(C)=O)C(F)(F)C(F)(F)F)c2nsnc2c1SC,-2112.339768,-2112.453622,3.2572,-8.2639491,-8.5072065,1.8579673400047343
499,BTZ-Neutral-wb97xd-1448,COc1c(C)c(N(C(C)=O)C(F)(F)C(F)(F)F)c2nsnc2c1SC(F)(F)F,-2410.017261,-2410.140082,6.6119,-9.019570800000002,-8.941206000000003,2.101959409998117
500,BTZ-Neutral-wb97xd-1494,CC(=O)N(c1c(C)c(N(C)C)c(N(C)C)c2nsnc12)C(F)(F)C(F)(F)F,-1828.1629050000001,-1828.274239,9.1578,-7.8136236000000014,-7.921375200000001,1.7893981399984364
501,BTZ-Neutral-wb97xd-1495,CC(=O)N(c1c(C)c(N(C)C)c([N+](=O)[O-])c2nsnc12)C(F)(F)C(F)(F)F,-1898.7323399999998,-1898.864323,8.7836,-8.083546799999999,-8.4029922,2.351257430005944
502,BTZ-Neutral-wb97xd-1496,CC(=O)N(c1c(C)c(N(C)C)c(S(=O)(=O)N(C)C)c2nsnc12)C(F)(F)C(F)(F)F,-2376.6752149999998,-2376.7928420000003,7.9597,-7.915661099999999,-7.9472247,1.9606306700146618
503,BTZ-Neutral-wb97xd-1497,CC(=O)N(c1c(C(F)(F)F)c(C)c(C)c2nsnc12)C(F)(F)C(F)(F)F,-1936.6665289999999,-1936.789914,2.7781,-8.799441900000001,-8.601897300000001,2.117305850002679
504,BTZ-Neutral-wb97xd-1498,CC(=O)N(c1c(C(F)(F)F)c(C)c(C(F)(F)F)c2nsnc12)C(F)(F)C(F)(F)F,-2234.33713,-2234.475427,5.515,-9.4538424,-9.3060921,2.5230613699990725
505,BTZ-Neutral-wb97xd-1499,CC(=O)N(c1c(C(F)(F)F)c(C)c(C#N)c2nsnc12)C(F)(F)C(F)(F)F,-1989.5907350000002,-1989.7353489999998,3.8360000000000003,-9.4160205,-9.2780658,2.6949469399889017
508,BTZ-Neutral-wb97xd-1500,COc1c(C)c(C(F)(F)F)c(N(C(C)=O)C(F)(F)C(F)(F)F)c2nsnc12,-2011.843646,-2011.9707469999998,9.7784,-8.343674400000001,-8.3004105,2.2184182099948684
509,BTZ-Neutral-wb97xd-1501,CC(=O)N(c1c(C(F)(F)F)c(C)c(OC(F)(F)F)c2nsnc12)C(F)(F)C(F)(F)F,-2309.536611,-2309.6672399999998,2.5225,-9.272623800000002,-8.874813600000003,2.314415089993786
510,BTZ-Neutral-wb97xd-1502,CSc1c(C)c(C(F)(F)F)c(N(C(C)=O)C(F)(F)C(F)(F)F)c2nsnc12,-2334.8297629999997,-2334.9577480000003,3.1956,-8.435372099999999,-8.4911526,2.2424718500145673
511,BTZ-Neutral-wb97xd-1503,CC(=O)N(c1c(C(F)(F)F)c(C)c(SC(F)(F)F)c2nsnc12)C(F)(F)C(F)(F)F,-2632.504897,-2632.6399030000002,2.8317,-9.4198299,-9.0530391,2.433513260011714
512,BTZ-Neutral-wb97xd-1504,CC(=O)N(c1c(C(F)(F)F)c(C)c(Br)c2nsnc12)C(F)(F)C(F)(F)F,-4468.54561,-4468.678293,6.5605,-8.991000300000001,-8.891411699999999,2.3703044299949765
513,BTZ-Neutral-wb97xd-1505,CC(=O)N(c1c(C(F)(F)F)c(C)c(N(C)C)c2nsnc12)C(F)(F)C(F)(F)F,-2031.2514640000002,-2031.3758710000002,11.5622,-7.582610699999999,-8.2702074,2.1451144700005242
514,BTZ-Neutral-wb97xd-1506,CC(=O)N(c1c(C(F)(F)F)c(C)c([N+](=O)[O-])c2nsnc12)C(F)(F)C(F)(F)F,-2101.809621,-2101.9500780000003,4.5679,-9.4965621,-9.2511279,2.581834970011542
515,BTZ-Neutral-wb97xd-1507,CC(=O)N(c1c(C(F)(F)F)c(C)c(S(=O)(=O)N(C)C)c2nsnc12)C(F)(F)C(F)(F)F,-2579.757683,-2579.893305,4.6706,-9.1727631,-9.0843306,2.4502746200065166
516,BTZ-Neutral-wb97xd-1508,CC(=O)N(c1c(C(F)(F)F)c(C(F)(F)F)c(C)c2nsnc12)C(F)(F)C(F)(F)F,-2234.3321339999998,-2234.468704,8.5932,-9.3890826,-9.210585000000002,2.4760697000032588
517,BTZ-Neutral-wb97xd-1509,CC(=O)N(c1c(C(F)(F)F)c(C(F)(F)F)c(C(F)(F)F)c2nsnc12)C(F)(F)C(F)(F)F,-2531.994397,-2532.144112,5.1482,-9.9607647,-9.7387311,2.8337451500004
519,BTZ-Neutral-wb97xd-1510,CC(=O)N(c1c(C(F)(F)F)c(C(F)(F)F)c(C#N)c2nsnc12)C(F)(F)C(F)(F)F,-2287.247911,-2287.4050989999996,3.6861,-9.833694,-9.678869100000002,3.0370854799912426
520,BTZ-Neutral-wb97xd-1511,COc1c(C(F)(F)F)c(C(F)(F)F)c(N(C(C)=O)C(F)(F)C(F)(F)F)c2nsnc12,-2309.5082199999997,-2309.640453,6.4304,-8.9039283,-8.891955900000003,2.3580599300073297
521,BTZ-Neutral-wb97xd-1512,CC(=O)N(c1c(C(F)(F)F)c(C(F)(F)F)c(OC(F)(F)F)c2nsnc12)C(F)(F)C(F)(F)F,-2607.1994670000004,-2607.345786,5.8787,-9.6935625,-9.482140800000002,2.741339989986227
522,BTZ-Neutral-wb97xd-1513,CSc1c(C(F)(F)F)c(C(F)(F)F)c(N(C(C)=O)C(F)(F)C(F)(F)F)c2nsnc12,-2632.490279,-2632.6281480000002,4.8617,-8.789102100000001,-8.7640689,2.5114154900037287
523,BTZ-Neutral-wb97xd-1514,CC(=O)N(c1c(C(F)(F)F)c(C(F)(F)F)c(SC(F)(F)F)c2nsnc12)C(F)(F)C(F)(F)F,-2930.161602,-2930.31299,6.1642,-9.6911136,-9.477787200000002,2.879267479993737
524,BTZ-Neutral-wb97xd-1515,CC(=O)N(c1c(C(F)(F)F)c(C(F)(F)F)c(Br)c2nsnc12)C(F)(F)C(F)(F)F,-4766.203413,-4766.346291,4.532,-9.495745800000002,-9.321601800000002,2.647710379990613
525,BTZ-Neutral-wb97xd-1516,CC(=O)N(c1c(C(F)(F)F)c(C(F)(F)F)c(N(C)C)c2nsnc12)C(F)(F)C(F)(F)F,-2328.912932,-2329.053217,8.6654,-8.4399978,-8.5795851,2.5771548499986103
526,BTZ-Neutral-wb97xd-1517,CC(=O)N(c1c(C(F)(F)F)c(C(F)(F)F)c([N+](=O)[O-])c2nsnc12)C(F)(F)C(F)(F)F,-2399.472127,-2399.6287350000002,4.2599,-9.878318400000001,-9.786892800000002,3.0213036800063398
527,BTZ-Neutral-wb97xd-1518,CC(=O)N(c1c(C(F)(F)F)c(C(F)(F)F)c(S(=O)(=O)N(C)C)c2nsnc12)C(F)(F)C(F)(F)F,-2877.414307,-2877.560168,10.5011,-9.191538000000001,-9.120519900000001,2.7288778099991307
528,BTZ-Neutral-wb97xd-1519,CC(=O)N(c1c(C(F)(F)F)c(C#N)c(C)c2nsnc12)C(F)(F)C(F)(F)F,-1989.594214,-1989.73104,6.4034,-9.379287,-9.1346691,2.483035459998046
530,BTZ-Neutral-wb97xd-1520,CC(=O)N(c1c(C(F)(F)F)c(C#N)c(C(F)(F)F)c2nsnc12)C(F)(F)C(F)(F)F,-2287.256861,-2287.411027,8.226,-9.9705603,-9.7400916,2.954856860007057
531,BTZ-Neutral-wb97xd-1521,CC(=O)N(c1c(C(F)(F)F)c(C#N)c(C#N)c2nsnc12)C(F)(F)C(F)(F)F,-2042.5056559999998,-2042.6647710000002,5.8659,-9.8497479,-9.727302900000002,3.089519150010437
532,BTZ-Neutral-wb97xd-1522,COc1c(C#N)c(C(F)(F)F)c(N(C(C)=O)C(F)(F)C(F)(F)F)c2nsnc12,-2064.769129,-2064.902325,9.0763,-8.786109000000002,-8.7967209,2.3842631600061353
533,BTZ-Neutral-wb97xd-1523,CC(=O)N(c1c(C(F)(F)F)c(C#N)c(OC(F)(F)F)c2nsnc12)C(F)(F)C(F)(F)F,-2362.456967,-2362.60317,8.5112,-9.6973719,-9.496017900000002,2.7381836299941966
534,BTZ-Neutral-wb97xd-1524,CSc1c(C#N)c(C(F)(F)F)c(N(C(C)=O)C(F)(F)C(F)(F)F)c2nsnc12,-2387.755019,-2387.8975179999998,8.6171,-8.638902900000001,-8.941206000000003,2.6373977899888086
535,BTZ-Neutral-wb97xd-1525,CC(=O)N(c1c(C(F)(F)F)c(C#N)c(SC(F)(F)F)c2nsnc12)C(F)(F)C(F)(F)F,-2685.424086,-2685.575325,7.7787,-9.9022632,-9.6481218,2.8752131899946924
536,BTZ-Neutral-wb97xd-1526,CC(=O)N(c1c(C(F)(F)F)c(C#N)c(Br)c2nsnc12)C(F)(F)C(F)(F)F,-4521.465096,-4521.613052000001,6.9344,-9.5273094,-9.4369722,2.785882760019158
537,BTZ-Neutral-wb97xd-1527,CC(=O)N(c1c(C(F)(F)F)c(C#N)c(N(C)C)c2nsnc12)C(F)(F)C(F)(F)F,-2084.1829350000003,-2084.31297,8.1712,-8.0236848,-8.5662522,2.2982523499912855