,File Name,SMILES,Neutral Free Energy,Reduced Free Energy,Neutral Dipole moment,Neutral HOMO_Opt,Neutral HOMO_Unopt,Red Pot Li/Li+ (V)
538,BTZ-Neutral-wb97xd-1528,CC(=O)N(c1c(C(F)(F)F)c(C#N)c([N+](=O)[O-])c2nsnc12)C(F)(F)C(F)(F)F,-2154.723497,-2154.885565,9.7297,-9.9893352,-9.706351199999999,3.1698702800024554
539,BTZ-Neutral-wb97xd-1529,CC(=O)N(c1c(C(F)(F)F)c(C#N)c(S(=O)(=O)N(C)C)c2nsnc12)C(F)(F)C(F)(F)F,-2632.680425,-2632.833505,10.6179,-9.449488800000001,-9.4279929,2.925306800001235
541,BTZ-Neutral-wb97xd-1530,COc1c(C(F)(F)F)c(N(C(C)=O)C(F)(F)C(F)(F)F)c2nsnc2c1C,-2011.844117,-2011.9675559999998,3.5792,-8.779578599999999,-8.663664,2.118775189992782
542,BTZ-Neutral-wb97xd-1531,COc1c(C(F)(F)F)c(N(C(C)=O)C(F)(F)C(F)(F)F)c2nsnc2c1C(F)(F)F,-2309.518381,-2309.656891,4.1623,-9.4230951,-9.403231800000002,2.5288571000060935
543,BTZ-Neutral-wb97xd-1532,COc1c(C(F)(F)F)c(N(C(C)=O)C(F)(F)C(F)(F)F)c2nsnc2c1C#N,-2064.76743,-2064.908106,3.9051,-8.970592800000002,-9.2965686,2.5877939599995896
544,BTZ-Neutral-wb97xd-1533,COc1c(C(F)(F)F)c(N(C(C)=O)C(F)(F)C(F)(F)F)c2nsnc2c1OC,-2087.0180739999996,-2087.1419739999997,4.1419999999999995,-8.247078900000002,-8.3243553,2.1313190000013265
545,BTZ-Neutral-wb97xd-1534,COc1c(C(F)(F)F)c(N(C(C)=O)C(F)(F)C(F)(F)F)c2nsnc2c1OC(F)(F)F,-2384.71427,-2384.850794,1.4134,-9.038345699999999,-9.0331758,2.4748180400002324
546,BTZ-Neutral-wb97xd-1535,COc1c(C(F)(F)F)c(N(C(C)=O)C(F)(F)C(F)(F)F)c2nsnc2c1SC,-2410.011653,-2410.141584,8.31,-8.2840845,-8.5948227,2.2954225099984296
547,BTZ-Neutral-wb97xd-1536,COc1c(C(F)(F)F)c(N(C(C)=O)C(F)(F)C(F)(F)F)c2nsnc2c1SC(F)(F)F,-2707.68369,-2707.821575,8.2813,-9.2201085,-9.3210576,2.511850850002629
548,BTZ-Neutral-wb97xd-1537,COc1c(C(F)(F)F)c(N(C(C)=O)C(F)(F)C(F)(F)F)c2nsnc2c1Br,-4543.721473,-4543.855651,7.9758,-8.946103800000003,-8.9768511,2.410983380006728
549,BTZ-Neutral-wb97xd-1538,COc1c(C(F)(F)F)c(N(C(C)=O)C(F)(F)C(F)(F)F)c2nsnc2c1N(C)C,-2106.429084,-2106.550245,5.1447,-7.4520027,-7.936340700000001,2.056790810000794
550,BTZ-Neutral-wb97xd-1449,COc1c(C)c(N(C(C)=O)C(F)(F)C(F)(F)F)c2nsnc2c1Br,-4246.056029,-4246.175445,8.089,-8.7458382,-8.686520400000001,2.0093093599876557
552,BTZ-Neutral-wb97xd-1450,COc1c(C)c(N(C(C)=O)C(F)(F)C(F)(F)F)c2nsnc2c1N(C)C,-1808.7612809999998,-1808.871215,11.9966,-7.3447952999999995,-7.7627409,1.751304140001812
553,BTZ-Neutral-wb97xd-1451,COc1c(C)c(N(C(C)=O)C(F)(F)C(F)(F)F)c2nsnc2c1[N+](=O)[O-],-1879.3250440000002,-1879.4582260000002,4.4739,-9.1885449,-9.0603858,2.3838822200009098
554,BTZ-Neutral-wb97xd-1452,COc1c(C)c(N(C(C)=O)C(F)(F)C(F)(F)F)c2nsnc2c1S(=O)(=O)N(C)C,-2357.274792,-2357.398446,4.7799,-8.9363082,-8.7757692,2.1246253399996657
555,BTZ-Neutral-wb97xd-1453,CC(=O)N(c1c(C)c(OC(F)(F)F)c(C)c2nsnc12)C(F)(F)C(F)(F)F,-2011.875062,-2011.9926,1.8277,-8.9039283,-8.594278500000001,1.958208979999122
556,BTZ-Neutral-wb97xd-1454,CC(=O)N(c1c(C)c(OC(F)(F)F)c(C(F)(F)F)c2nsnc12)C(F)(F)C(F)(F)F,-2309.542014,-2309.673823,5.9635,-9.3528933,-9.202694099999999,2.3465228899993376
557,BTZ-Neutral-wb97xd-1455,CC(=O)N(c1c(C)c(OC(F)(F)F)c(C#N)c2nsnc12)C(F)(F)C(F)(F)F,-2064.791937,-2064.928575,8.3718,-9.3371115,-9.136301699999999,2.477919979998587
558,BTZ-Neutral-wb97xd-1456,COc1c(OC(F)(F)F)c(C)c(N(C(C)=O)C(F)(F)C(F)(F)F)c2nsnc12,-2087.047869,-2087.1640829999997,1.6737,-8.318097000000002,-8.236194900000001,1.9221829399910895
559,BTZ-Neutral-wb97xd-1457,CC(=O)N(c1c(C)c(OC(F)(F)F)c(OC(F)(F)F)c2nsnc12)C(F)(F)C(F)(F)F,-2384.743102,-2384.871554,4.7456,-9.305819999999999,-9.0127683,2.2551789199979524
560,BTZ-Neutral-wb97xd-1458,CSc1c(OC(F)(F)F)c(C)c(N(C(C)=O)C(F)(F)C(F)(F)F)c2nsnc12,-2410.035151,-2410.157032,4.1128,-8.4819012,-8.5257093,2.0763820100008257
561,BTZ-Neutral-wb97xd-1459,CC(=O)N(c1c(C)c(OC(F)(F)F)c(SC(F)(F)F)c2nsnc12)C(F)(F)C(F)(F)F,-2707.708666,-2707.840734,5.1215,-9.2930313,-9.1618791,2.3535702799970117
563,BTZ-Neutral-wb97xd-1460,CC(=O)N(c1c(C)c(OC(F)(F)F)c(Br)c2nsnc12)C(F)(F)C(F)(F)F,-4543.750857999999,-4543.879558,4.138999999999999,-8.9839257,-8.856582900000003,2.261927000005662
564,BTZ-Neutral-wb97xd-1461,CC(=O)N(c1c(C)c(OC(F)(F)F)c(N(C)C)c2nsnc12)C(F)(F)C(F)(F)F,-2106.462501,-2106.577137,9.6516,-7.604106599999999,-8.000828400000001,1.8792455600066933
565,BTZ-Neutral-wb97xd-1462,CC(=O)N(c1c(C)c(OC(F)(F)F)c([N+](=O)[O-])c2nsnc12)C(F)(F)C(F)(F)F,-2177.013732,-2177.1621170000003,2.9479,-9.4307139,-9.2179317,2.7975558500113404
566,BTZ-Neutral-wb97xd-1463,CC(=O)N(c1c(C)c(OC(F)(F)F)c(S(=O)(=O)N(C)C)c2nsnc12)C(F)(F)C(F)(F)F,-2654.969971,-2655.102079,8.3038,-9.0497739,-9.0293664,2.3546586799942633
567,BTZ-Neutral-wb97xd-1464,CSc1c(C)c(N(C(C)=O)C(F)(F)C(F)(F)F)c2nsnc2c1C,-2037.1653039999999,-2037.28053,7.43,-8.5023087,-8.472649800000001,1.8952994600032824
568,BTZ-Neutral-wb97xd-1465,CSc1c(C)c(N(C(C)=O)C(F)(F)C(F)(F)F)c2nsnc2c1C(F)(F)F,-2334.832723,-2334.959908,5.9311,-8.7112815,-8.712369899999999,2.2207038499952843
569,BTZ-Neutral-wb97xd-1466,CSc1c(C)c(N(C(C)=O)C(F)(F)C(F)(F)F)c2nsnc2c1C#N,-2090.086357,-2090.21829,8.5352,-8.825019300000003,-8.811142199999999,2.349896929990819
570,BTZ-Neutral-wb97xd-1467,COc1c(SC)c(C)c(N(C(C)=O)C(F)(F)C(F)(F)F)c2nsnc12,-2112.338239,-2112.4547820000003,2.9773,-8.0147055,-8.297961599999999,1.9311350300025152
571,BTZ-Neutral-wb97xd-1468,CSc1c(C)c(N(C(C)=O)C(F)(F)C(F)(F)F)c2nsnc2c1OC(F)(F)F,-2410.033142,-2410.161564,6.6263,-8.7376752,-8.6247537,2.2543626199938265
572,BTZ-Neutral-wb97xd-1469,CSc1c(C)c(N(C(C)=O)C(F)(F)C(F)(F)F)c2nsnc2c1SC,-2435.32692,-2435.450168,6.9331,-8.0631393,-8.2277598,2.113578079996623
574,BTZ-Neutral-wb97xd-1470,CSc1c(C)c(N(C(C)=O)C(F)(F)C(F)(F)F)c2nsnc2c1SC(F)(F)F,-2732.9967739999997,-2733.123483,5.2172,-8.527614,-8.527886100000002,2.2077518900032373
575,BTZ-Neutral-wb97xd-1471,CSc1c(C)c(N(C(C)=O)C(F)(F)C(F)(F)F)c2nsnc2c1Br,-4569.041923,-4569.165387,7.0288,-8.5776804,-8.578496699999999,2.119455440006532
576,BTZ-Neutral-wb97xd-1472,CSc1c(C)c(N(C(C)=O)C(F)(F)C(F)(F)F)c2nsnc2c1N(C)C,-2131.745821,-2131.861125,11.1217,-7.3856103000000015,-7.881376500000001,1.897421839997924
577,BTZ-Neutral-wb97xd-1473,CSc1c(C)c(N(C(C)=O)C(F)(F)C(F)(F)F)c2nsnc2c1[N+](=O)[O-],-2202.3064170000002,-2202.440252,7.2643,-8.961069300000002,-8.933587199999998,2.401650349990077
578,BTZ-Neutral-wb97xd-1474,CSc1c(C)c(N(C(C)=O)C(F)(F)C(F)(F)F)c2nsnc2c1S(=O)(=O)N(C)C,-2680.251138,-2680.380265,6.3648,-8.397550200000001,-8.254153500000001,2.273545669991795
579,BTZ-Neutral-wb97xd-1475,CC(=O)N(c1c(C)c(SC(F)(F)F)c(C)c2nsnc12)C(F)(F)C(F)(F)F,-2334.8404149999997,-2334.9632300000003,7.227,-8.905833,-8.6993091,2.1017961500170896
580,BTZ-Neutral-wb97xd-1476,CC(=O)N(c1c(C)c(SC(F)(F)F)c(C(F)(F)F)c2nsnc12)C(F)(F)C(F)(F)F,-2632.506348,-2632.645376,4.2603,-9.355342199999999,-9.2337135,2.542951880001442
581,BTZ-Neutral-wb97xd-1477,CC(=O)N(c1c(C)c(SC(F)(F)F)c(C#N)c2nsnc12)C(F)(F)C(F)(F)F,-2387.7583870000003,-2387.901755,7.5265,-9.4143879,-9.2209248,2.6610432799878847
582,BTZ-Neutral-wb97xd-1478,COc1c(SC(F)(F)F)c(C)c(N(C(C)=O)C(F)(F)C(F)(F)F)c2nsnc12,-2410.016502,-2410.135347,2.0517,-8.4655752,-8.491424700000001,1.9937724499990417
583,BTZ-Neutral-wb97xd-1479,CC(=O)N(c1c(C)c(SC(F)(F)F)c(OC(F)(F)F)c2nsnc12)C(F)(F)C(F)(F)F,-2707.704644,-2707.835144,5.4722,-9.1485462,-8.945559600000003,2.310905000005741
585,BTZ-Neutral-wb97xd-1480,CSc1c(SC(F)(F)F)c(C)c(N(C(C)=O)C(F)(F)C(F)(F)F)c2nsnc12,-2732.997802,-2733.123602,2.1784,-8.3393208,-8.4239439,2.1830180000069097
586,BTZ-Neutral-wb97xd-1481,CC(=O)N(c1c(C)c(SC(F)(F)F)c(SC(F)(F)F)c2nsnc12)C(F)(F)C(F)(F)F,-3030.6725300000003,-3030.806706,4.7021,-9.1387506,-9.0182103,2.410928959988305
587,BTZ-Neutral-wb97xd-1482,CC(=O)N(c1c(C)c(SC(F)(F)F)c(Br)c2nsnc12)C(F)(F)C(F)(F)F,-4866.717269,-4866.849122,4.4182,-9.0497739,-8.943110699999998,2.347720129996315
588,BTZ-Neutral-wb97xd-1483,CC(=O)N(c1c(C)c(SC(F)(F)F)c(N(C)C)c2nsnc12)C(F)(F)C(F)(F)F,-2429.424871,-2429.546562,10.9666,-7.727639999999999,-8.223406200000001,2.071212109995318
589,BTZ-Neutral-wb97xd-1484,CC(=O)N(c1c(C)c(SC(F)(F)F)c([N+](=O)[O-])c2nsnc12)C(F)(F)C(F)(F)F,-2499.982345,-2500.126992,3.9557,-9.3885384,-9.224734199999999,2.6958448700021016
590,BTZ-Neutral-wb97xd-1485,CC(=O)N(c1c(C)c(SC(F)(F)F)c(S(=O)(=O)N(C)C)c2nsnc12)C(F)(F)C(F)(F)F,-2977.9254899999996,-2978.0634,10.0421,-9.022019699999998,-8.9632461,2.512531100010192
591,BTZ-Neutral-wb97xd-1486,CC(=O)N(c1c(C)c(N(C)C)c(C)c2nsnc12)C(F)(F)C(F)(F)F,-1733.581088,-1733.6921920000002,9.9215,-7.8016511999999985,-7.8443709,1.7831398400080503
592,BTZ-Neutral-wb97xd-1487,CC(=O)N(c1c(C)c(N(C)C)c(C(F)(F)F)c2nsnc12)C(F)(F)C(F)(F)F,-2031.250959,-2031.372827,6.7636,-8.085451500000001,-8.058241500000001,2.076028279998625
593,BTZ-Neutral-wb97xd-1488,CC(=O)N(c1c(C)c(N(C)C)c(C#N)c2nsnc12)C(F)(F)C(F)(F)F,-1786.505547,-1786.632429,9.8112,-7.923552000000001,-8.303947800000001,2.2124592200006328
594,BTZ-Neutral-wb97xd-1489,COc1c(N(C)C)c(C)c(N(C(C)=O)C(F)(F)C(F)(F)F)c2nsnc12,-1808.7573280000001,-1808.871172,9.5116,-7.7684549999999986,-8.075928000000001,1.8576952399930475
596,BTZ-Neutral-wb97xd-1490,CC(=O)N(c1c(C)c(N(C)C)c(OC(F)(F)F)c2nsnc12)C(F)(F)C(F)(F)F,-2106.455384,-2106.573945,8.1267,-7.863417900000001,-7.9771557,1.9860448100061785
597,BTZ-Neutral-wb97xd-1491,CSc1c(N(C)C)c(C)c(N(C(C)=O)C(F)(F)C(F)(F)F)c2nsnc12,-2131.7468670000003,-2131.862557,9.3334,-7.745598600000001,-8.011440299999999,1.9079248999899667
598,BTZ-Neutral-wb97xd-1492,CC(=O)N(c1c(C)c(N(C)C)c(SC(F)(F)F)c2nsnc12)C(F)(F)C(F)(F)F,-2429.421886,-2429.543672,8.4123,-7.8511733999999995,-7.9771557,2.0737970599918842
599,BTZ-Neutral-wb97xd-1493,CC(=O)N(c1c(C)c(N(C)C)c(Br)c2nsnc12)C(F)(F)C(F)(F)F,-4265.458672,-4265.576142,4.7626,-7.9537550999999995,-8.107763700000001,1.9563587000037932
600,BTZ-Neutral-wb97xd-1539,COc1c(C(F)(F)F)c(N(C(C)=O)C(F)(F)C(F)(F)F)c2nsnc2c1[N+](=O)[O-],-2176.98565,-2177.129206,4.4375,-9.198612599999999,-9.3430977,2.6661587599997167
602,BTZ-Neutral-wb97xd-1540,COc1c(C(F)(F)F)c(N(C(C)=O)C(F)(F)C(F)(F)F)c2nsnc2c1S(=O)(=O)N(C)C,-2654.9379089999998,-2655.0747309999997,6.6875,-8.9801163,-8.9828373,2.48292661999832
603,BTZ-Neutral-wb97xd-1541,CC(=O)N(c1c(C(F)(F)F)c(OC(F)(F)F)c(C)c2nsnc12)C(F)(F)C(F)(F)F,-2309.542024,-2309.675223,8.9071,-9.2522163,-9.0448761,2.384344790009022
604,BTZ-Neutral-wb97xd-1542,CC(=O)N(c1c(C(F)(F)F)c(OC(F)(F)F)c(C(F)(F)F)c2nsnc12)C(F)(F)C(F)(F)F,-2607.202097,-2607.347899,5.6728,-9.828252,-9.6143814,2.727272420000091
605,BTZ-Neutral-wb97xd-1543,CC(=O)N(c1c(C(F)(F)F)c(OC(F)(F)F)c(C#N)c2nsnc12)C(F)(F)C(F)(F)F,-2362.454018,-2362.608223,3.5812,-9.7634922,-9.5985996,2.9559180500074715
606,BTZ-Neutral-wb97xd-1544,COc1c(OC(F)(F)F)c(C(F)(F)F)c(N(C(C)=O)C(F)(F)C(F)(F)F)c2nsnc12,-2384.717744,-2384.848359,9.8271,-8.6225769,-8.592101699999999,2.3140341500009347
607,BTZ-Neutral-wb97xd-1545,CC(=O)N(c1c(C(F)(F)F)c(OC(F)(F)F)c(OC(F)(F)F)c2nsnc12)C(F)(F)C(F)(F)F,-2682.404693,-2682.545146,5.2871,-9.6154698,-9.3542538,2.581726129999443
608,BTZ-Neutral-wb97xd-1546,CSc1c(OC(F)(F)F)c(C(F)(F)F)c(N(C(C)=O)C(F)(F)C(F)(F)F)c2nsnc12,-2707.701828,-2707.8376399999997,5.7099,-8.6059788,-8.742573,2.455444519987277
609,BTZ-Neutral-wb97xd-1547,CC(=O)N(c1c(C(F)(F)F)c(OC(F)(F)F)c(SC(F)(F)F)c2nsnc12)C(F)(F)C(F)(F)F,-3005.372276,-3005.52117,4.8428,-9.7370985,-9.7313844,2.811405739998026
610,BTZ-Neutral-wb97xd-1548,CC(=O)N(c1c(C(F)(F)F)c(OC(F)(F)F)c(Br)c2nsnc12)C(F)(F)C(F)(F)F,-4841.415194,-4841.555611,6.0265,-9.340648800000002,-9.325683300000001,2.580746569989542
611,BTZ-Neutral-wb97xd-1549,CC(=O)N(c1c(C(F)(F)F)c(OC(F)(F)F)c(N(C)C)c2nsnc12)C(F)(F)C(F)(F)F,-2404.126853,-2404.258156,10.8993,-7.8054606,-8.241636900000001,2.3327546299907906
613,BTZ-Neutral-wb97xd-1550,CC(=O)N(c1c(C(F)(F)F)c(OC(F)(F)F)c([N+](=O)[O-])c2nsnc12)C(F)(F)C(F)(F)F,-2474.675286,-2474.831547,3.6884,-9.856278300000001,-9.665264100000002,3.0118618099899637
614,BTZ-Neutral-wb97xd-1551,CC(=O)N(c1c(C(F)(F)F)c(OC(F)(F)F)c(S(=O)(=O)N(C)C)c2nsnc12)C(F)(F)C(F)(F)F,-2952.6231620000003,-2952.772117,10.3583,-9.1972521,-9.078888599999999,2.8130655499907427
615,BTZ-Neutral-wb97xd-1552,CSc1c(C(F)(F)F)c(N(C(C)=O)C(F)(F)C(F)(F)F)c2nsnc2c1C,-2334.830101,-2334.956236,3.3939999999999997,-8.5589055,-8.628291,2.192133349999363
616,BTZ-Neutral-wb97xd-1553,CSc1c(C(F)(F)F)c(N(C(C)=O)C(F)(F)C(F)(F)F)c2nsnc2c1C(F)(F)F,-2632.495348,-2632.6373550000003,3.7152,-8.877806699999999,-8.8935885,2.6240104700102345
617,BTZ-Neutral-wb97xd-1554,CSc1c(C(F)(F)F)c(N(C(C)=O)C(F)(F)C(F)(F)F)c2nsnc2c1C#N,-2387.749677,-2387.899359,5.449,-8.9790279,-8.9918166,2.8328472200057604
618,BTZ-Neutral-wb97xd-1555,COc1c(SC)c(C(F)(F)F)c(N(C(C)=O)C(F)(F)C(F)(F)F)c2nsnc12,-2410.007814,-2410.13736,11.4416,-8.2492557,-8.5156416,2.284946660003225
619,BTZ-Neutral-wb97xd-1556,CSc1c(C(F)(F)F)c(N(C(C)=O)C(F)(F)C(F)(F)F)c2nsnc2c1OC(F)(F)F,-2707.6989129999997,-2707.8390679999998,7.5052,-8.8021629,-8.8021629,2.5736175500013543
620,BTZ-Neutral-wb97xd-1557,CSc1c(C(F)(F)F)c(N(C(C)=O)C(F)(F)C(F)(F)F)c2nsnc2c1SC,-2732.991262,-2733.12454,9.7473,-8.2285761,-8.372517,2.386494379994315
621,BTZ-Neutral-wb97xd-1558,CSc1c(C(F)(F)F)c(N(C(C)=O)C(F)(F)C(F)(F)F)c2nsnc2c1SC(F)(F)F,-3030.661805,-3030.799911,3.299,-8.681622599999999,-8.715363,2.5178642599967276
622,BTZ-Neutral-wb97xd-1559,CSc1c(C(F)(F)F)c(N(C(C)=O)C(F)(F)C(F)(F)F)c2nsnc2c1Br,-4866.704944,-4866.838744,3.8398,-8.6933229,-8.740396200000001,2.4006979999893883
624,BTZ-Neutral-wb97xd-1560,CSc1c(C(F)(F)F)c(N(C(C)=O)C(F)(F)C(F)(F)F)c2nsnc2c1N(C)C,-2429.4084350000003,-2429.535845,5.8734,-7.5456050999999995,-8.0103519,2.2268260999891076
625,BTZ-Neutral-wb97xd-1561,CSc1c(C(F)(F)F)c(N(C(C)=O)C(F)(F)C(F)(F)F)c2nsnc2c1[N+](=O)[O-],-2499.973937,-2500.116159,6.1955,-9.1188873,-9.0748071,2.629860619998558
626,BTZ-Neutral-wb97xd-1562,CSc1c(C(F)(F)F)c(N(C(C)=O)C(F)(F)C(F)(F)F)c2nsnc2c1S(=O)(=O)N(C)C,-2977.916197,-2978.056087,7.0511,-8.526253500000001,-8.561898600000001,2.5664068999979053
627,BTZ-Neutral-wb97xd-1563,CC(=O)N(c1c(C(F)(F)F)c(SC(F)(F)F)c(C)c2nsnc12)C(F)(F)C(F)(F)F,-2632.504552,-2632.638605,3.6836,-9.3814638,-9.1031055,2.407582130006035
628,BTZ-Neutral-wb97xd-1564,CC(=O)N(c1c(C(F)(F)F)c(SC(F)(F)F)c(C(F)(F)F)c2nsnc12)C(F)(F)C(F)(F)F,-2930.164373,-2930.311352,6.1066,-9.845938499999999,-9.8579109,2.7592985900027545
629,BTZ-Neutral-wb97xd-1565,CC(=O)N(c1c(C(F)(F)F)c(SC(F)(F)F)c(C#N)c2nsnc12)C(F)(F)C(F)(F)F,-2685.419694,-2685.572369,6.6993,-9.8892024,-9.654108,2.9142867499950302
630,BTZ-Neutral-wb97xd-1566,COc1c(SC(F)(F)F)c(C(F)(F)F)c(N(C(C)=O)C(F)(F)C(F)(F)F)c2nsnc12,-2707.680915,-2707.81149,6.3294,-8.734954199999999,-8.73441,2.3129457500036823
631,BTZ-Neutral-wb97xd-1567,CC(=O)N(c1c(C(F)(F)F)c(SC(F)(F)F)c(OC(F)(F)F)c2nsnc12)C(F)(F)C(F)(F)F,-3005.371443,-3005.5147239999997,5.5496,-9.677780699999998,-9.4369722,2.658676009990768
632,BTZ-Neutral-wb97xd-1568,CSc1c(SC(F)(F)F)c(C(F)(F)F)c(N(C(C)=O)C(F)(F)C(F)(F)F)c2nsnc12,-3030.6657600000003,-3030.8022170000004,5.582999999999999,-8.5556403,-8.7183561,2.472994970001742
633,BTZ-Neutral-wb97xd-1569,CC(=O)N(c1c(C(F)(F)F)c(SC(F)(F)F)c(SC(F)(F)F)c2nsnc12)C(F)(F)C(F)(F)F,-3328.335091,-3328.479736,6.4202,-9.3828243,-9.4214625,2.6957904499960526
635,BTZ-Neutral-wb97xd-1570,CC(=O)N(c1c(C(F)(F)F)c(SC(F)(F)F)c(Br)c2nsnc12)C(F)(F)C(F)(F)F,-5164.376339,-5164.5165560000005,4.822,-9.354797999999999,-9.3482676,2.575304570003282
636,BTZ-Neutral-wb97xd-1571,CC(=O)N(c1c(C(F)(F)F)c(SC(F)(F)F)c(N(C)C)c2nsnc12)C(F)(F)C(F)(F)F,-2727.090736,-2727.2194059999997,11.4532,-7.9121238,-8.3820405,2.261110699989163
637,BTZ-Neutral-wb97xd-1572,CC(=O)N(c1c(C(F)(F)F)c(SC(F)(F)F)c([N+](=O)[O-])c2nsnc12)C(F)(F)C(F)(F)F,-2797.636606,-2797.788993,6.9737,-9.8913792,-9.624177,2.906450270002442
638,BTZ-Neutral-wb97xd-1573,CC(=O)N(c1c(C(F)(F)F)c(SC(F)(F)F)c(S(=O)(=O)N(C)C)c2nsnc12)C(F)(F)C(F)(F)F,-3275.5894719999997,-3275.73033,10.6087,-9.3958851,-8.898486300000002,2.5927461800056477
639,BTZ-Neutral-wb97xd-1574,CC(=O)N(c1c(C(F)(F)F)c(N(C)C)c(C)c2nsnc12)C(F)(F)C(F)(F)F,-2031.2483129999998,-2031.3706960000002,3.0528,-8.036201400000001,-7.9891280999999985,2.090041430009647
640,BTZ-Neutral-wb97xd-1575,CC(=O)N(c1c(C(F)(F)F)c(N(C)C)c(C(F)(F)F)c2nsnc12)C(F)(F)C(F)(F)F,-2328.918866,-2329.057422,5.8508,-8.1798702,-8.284356599999999,2.5301087599967467
641,BTZ-Neutral-wb97xd-1576,CC(=O)N(c1c(C(F)(F)F)c(N(C)C)c(C#N)c2nsnc12)C(F)(F)C(F)(F)F,-2084.1727,-2084.3181449999997,4.3221,-8.476731299999999,-8.5121043,2.7175584499905883
642,BTZ-Neutral-wb97xd-1577,COc1c(N(C)C)c(C(F)(F)F)c(N(C(C)=O)C(F)(F)C(F)(F)F)c2nsnc12,-2106.4265960000002,-2106.554803,11.1179,-8.1991893,-8.3292531,2.2485124699931296
643,BTZ-Neutral-wb97xd-1578,CC(=O)N(c1c(C(F)(F)F)c(N(C)C)c(OC(F)(F)F)c2nsnc12)C(F)(F)C(F)(F)F,-2404.1194809999997,-2404.254348,6.5993,-8.342858099999999,-8.333606699999999,2.429731070005796
644,BTZ-Neutral-wb97xd-1579,CSc1c(N(C)C)c(C(F)(F)F)c(N(C(C)=O)C(F)(F)C(F)(F)F)c2nsnc12,-2429.413447,-2429.541775,2.4385,-8.117015100000001,-8.101777499999999,2.251804880006471
646,BTZ-Neutral-wb97xd-1580,CC(=O)N(c1c(C(F)(F)F)c(N(C)C)c(SC(F)(F)F)c2nsnc12)C(F)(F)C(F)(F)F,-2727.087121,-2727.220077,2.7713,-8.248167299999999,-8.3012268,2.3777327599978753
647,BTZ-Neutral-wb97xd-1581,CC(=O)N(c1c(C(F)(F)F)c(N(C)C)c(Br)c2nsnc12)C(F)(F)C(F)(F)F,-4563.128381,-4563.262127,7.8022,-8.234562299999999,-8.3395929,2.3992286599869113
648,BTZ-Neutral-wb97xd-1582,CC(=O)N(c1c(C(F)(F)F)c(N(C)C)c(N(C)C)c2nsnc12)C(F)(F)C(F)(F)F,-2125.83072,-2125.960578,10.4627,-8.0201475,-8.106947400000001,2.2934361800065384
649,BTZ-Neutral-wb97xd-1583,CC(=O)N(c1c(C(F)(F)F)c(N(C)C)c([N+](=O)[O-])c2nsnc12)C(F)(F)C(F)(F)F,-2196.39271,-2196.534337,3.0607,-8.427481199999999,-8.5227162,2.6136706699992196
650,BTZ-Neutral-wb97xd-1584,CC(=O)N(c1c(C(F)(F)F)c(N(C)C)c(S(=O)(=O)N(C)C)c2nsnc12)C(F)(F)C(F)(F)F,-2674.342306,-2674.479494,4.7901,-8.0927982,-8.2005498,2.4928854800041114
651,BTZ-Neutral-wb97xd-1585,CC(=O)N(c1c(C#N)c(C)c(C)c2nsnc12)C(F)(F)C(F)(F)F,-1691.923897,-1692.054731,11.0931,-8.870732100000003,-8.7330495,2.3199931400013565
652,BTZ-Neutral-wb97xd-1586,CC(=O)N(c1c(C#N)c(C)c(C(F)(F)F)c2nsnc12)C(F)(F)C(F)(F)F,-1989.5947390000001,-1989.731505,2.8765,-9.464726400000002,-9.3308532,2.481402859995981
653,BTZ-Neutral-wb97xd-1587,CC(=O)N(c1c(C#N)c(C)c(C#N)c2nsnc12)C(F)(F)C(F)(F)F,-1744.845425,-1744.995284,4.3799,-9.4660869,-9.338472,2.8376633900028807
654,BTZ-Neutral-wb97xd-1588,COc1c(C)c(C#N)c(N(C(C)=O)C(F)(F)C(F)(F)F)c2nsnc12,-1767.0985079999998,-1767.232075,12.8311,-8.3112945,-8.385577799999998,2.394358070002302
655,BTZ-Neutral-wb97xd-1589,CC(=O)N(c1c(C#N)c(C)c(OC(F)(F)F)c2nsnc12)C(F)(F)C(F)(F)F,-2064.795498,-2064.9334120000003,6.5327,-9.325683300000001,-9.1335807,2.512639940009917
657,BTZ-Neutral-wb97xd-1590,CSc1c(C)c(C#N)c(N(C(C)=O)C(F)(F)C(F)(F)F)c2nsnc12,-2090.084218,-2090.217225,4.1719,-8.4511539,-8.494962,2.3791204699974653
658,BTZ-Neutral-wb97xd-1591,CC(=O)N(c1c(C#N)c(C)c(SC(F)(F)F)c2nsnc12)C(F)(F)C(F)(F)F,-2387.763855,-2387.903346,6.2661,-9.4233672,-9.2467743,2.5555501099974753
659,BTZ-Neutral-wb97xd-1592,CC(=O)N(c1c(C#N)c(C)c(Br)c2nsnc12)C(F)(F)C(F)(F)F,-4223.799847,-4223.938181,8.1422,-9.0334479,-8.9286894,2.524068140005811
660,BTZ-Neutral-wb97xd-1593,CC(=O)N(c1c(C#N)c(C)c(N(C)C)c2nsnc12)C(F)(F)C(F)(F)F,-1786.50387,-1786.632973,6.1831,-7.571998800000001,-8.2380996,2.272892629999631
661,BTZ-Neutral-wb97xd-1594,CC(=O)N(c1c(C#N)c(C)c([N+](=O)[O-])c2nsnc12)C(F)(F)C(F)(F)F,-1857.066698,-1857.216452,4.8525,-9.5675802,-9.3833685,2.8348063399946275
662,BTZ-Neutral-wb97xd-1595,CC(=O)N(c1c(C#N)c(C)c(S(=O)(=O)N(C)C)c2nsnc12)C(F)(F)C(F)(F)F,-2335.014367,-2335.159642,10.5484,-9.211129199999998,-9.1243293,2.71293274999608
663,BTZ-Neutral-wb97xd-1596,CC(=O)N(c1c(C#N)c(C(F)(F)F)c(C)c2nsnc12)C(F)(F)C(F)(F)F,-1989.5909390000002,-1989.7296820000001,6.7495,-9.3681309,-8.973041700000003,2.5351970299993676
664,BTZ-Neutral-wb97xd-1597,CC(=O)N(c1c(C#N)c(C(F)(F)F)c(C(F)(F)F)c2nsnc12)C(F)(F)C(F)(F)F,-2287.251991,-2287.40493,6.7348,-9.8747811,-9.803763,2.9214701900016413
665,BTZ-Neutral-wb97xd-1598,CC(=O)N(c1c(C#N)c(C(F)(F)F)c(C#N)c2nsnc12)C(F)(F)C(F)(F)F,-2042.508163,-2042.6677829999999,6.1878,-9.7996815,-9.6941067,3.1032601999973988