,File Name,SMILES,Neutral Free Energy,Reduced Free Energy,Neutral Dipole moment,Neutral HOMO_Opt,Neutral HOMO_Unopt,Red Pot Li/Li+ (V)
666,BTZ-Neutral-wb97xd-1599,COc1c(C(F)(F)F)c(C#N)c(N(C(C)=O)C(F)(F)C(F)(F)F)c2nsnc12,-2064.767147,-2064.903827,9.181000000000001,-8.832366,-8.9558994,2.4790628000018886
669,BTZ-Neutral-wb97xd-1600,CC(=O)N(c1c(C#N)c(C(F)(F)F)c(OC(F)(F)F)c2nsnc12)C(F)(F)C(F)(F)F,-2362.458866,-2362.607786,8.0021,-9.7224051,-9.4576518,2.812113200002427
670,BTZ-Neutral-wb97xd-1601,CSc1c(C(F)(F)F)c(C#N)c(N(C(C)=O)C(F)(F)C(F)(F)F)c2nsnc12,-2387.7519620000003,-2387.898532,11.5602,-8.7466545,-8.7746808,2.748169699996825
671,BTZ-Neutral-wb97xd-1602,CC(=O)N(c1c(C#N)c(C(F)(F)F)c(SC(F)(F)F)c2nsnc12)C(F)(F)C(F)(F)F,-2685.419737,-2685.5701710000003,6.8294,-9.8287962,-9.7286634,2.853309140003594
672,BTZ-Neutral-wb97xd-1603,CC(=O)N(c1c(C#N)c(C(F)(F)F)c(Br)c2nsnc12)C(F)(F)C(F)(F)F,-4521.4614329999995,-4521.61297,9.2326,-9.5196906,-9.4171089,2.8833217700175284
673,BTZ-Neutral-wb97xd-1604,CC(=O)N(c1c(C#N)c(C(F)(F)F)c(N(C)C)c2nsnc12)C(F)(F)C(F)(F)F,-2084.179278,-2084.315815,14.0947,-8.036201400000001,-8.4519702,2.475171769996246
674,BTZ-Neutral-wb97xd-1605,CC(=O)N(c1c(C#N)c(C(F)(F)F)c([N+](=O)[O-])c2nsnc12)C(F)(F)C(F)(F)F,-2154.728943,-2154.884698,7.1277,-10.0170894,-9.724853999999999,2.9980935499937917
675,BTZ-Neutral-wb97xd-1606,CC(=O)N(c1c(C#N)c(C(F)(F)F)c(S(=O)(=O)N(C)C)c2nsnc12)C(F)(F)C(F)(F)F,-2632.6735129999997,-2632.82677,9.9389,-9.254121,-9.1382064,2.9301229700107294
676,BTZ-Neutral-wb97xd-1607,CC(=O)N(c1c(C#N)c(C#N)c(C)c2nsnc12)C(F)(F)C(F)(F)F,-1744.846922,-1744.9891280000002,11.1496,-9.383096400000001,-9.1850076,2.629425260005844
677,BTZ-Neutral-wb97xd-1608,CC(=O)N(c1c(C#N)c(C#N)c(C(F)(F)F)c2nsnc12)C(F)(F)C(F)(F)F,-2042.5077469999999,-2042.66237,9.2003,-9.8992701,-9.6913857,2.9672918300035027
678,BTZ-Neutral-wb97xd-1609,CC(=O)N(c1c(C#N)c(C#N)c(C#N)c2nsnc12)C(F)(F)C(F)(F)F,-1797.755787,-1797.917826,9.8231,-9.928112700000002,-9.667713,3.1690811900013545
680,BTZ-Neutral-wb97xd-1610,COc1c(C#N)c(C#N)c(N(C(C)=O)C(F)(F)C(F)(F)F)c2nsnc12,-1820.0219260000001,-1820.1597629999999,11.0347,-8.8671948,-8.8353591,2.510544769993553
681,BTZ-Neutral-wb97xd-1611,CC(=O)N(c1c(C#N)c(C#N)c(OC(F)(F)F)c2nsnc12)C(F)(F)C(F)(F)F,-2117.7058899999997,-2117.861305,8.9341,-9.6723387,-9.4611891,2.988842150004775
682,BTZ-Neutral-wb97xd-1612,CSc1c(C#N)c(C#N)c(N(C(C)=O)C(F)(F)C(F)(F)F)c2nsnc12,-2143.005387,-2143.1507890000003,11.008,-8.6405355,-8.9422944,2.716388420002822
683,BTZ-Neutral-wb97xd-1613,CC(=O)N(c1c(C#N)c(C#N)c(SC(F)(F)F)c2nsnc12)C(F)(F)C(F)(F)F,-2440.6735510000003,-2440.827357,8.7681,-9.823354199999999,-9.4840455,2.9450612599946684
684,BTZ-Neutral-wb97xd-1614,CC(=O)N(c1c(C#N)c(C#N)c(Br)c2nsnc12)C(F)(F)C(F)(F)F,-4276.714521,-4276.8666490000005,9.6618,-9.5292141,-9.4274487,2.899402880017142
685,BTZ-Neutral-wb97xd-1615,CC(=O)N(c1c(C#N)c(C#N)c(N(C)C)c2nsnc12)C(F)(F)C(F)(F)F,-1839.4343039999999,-1839.566291,10.4054,-7.997835300000001,-8.465847300000002,2.351366270005669
686,BTZ-Neutral-wb97xd-1616,CC(=O)N(c1c(C#N)c(C#N)c([N+](=O)[O-])c2nsnc12)C(F)(F)C(F)(F)F,-1909.975642,-1910.145349,9.7299,-10.0747746,-9.7311123,3.3777274699942677
687,BTZ-Neutral-wb97xd-1617,CC(=O)N(c1c(C#N)c(C#N)c(S(=O)(=O)N(C)C)c2nsnc12)C(F)(F)C(F)(F)F,-2387.932687,-2388.088558,6.4716,-9.5156091,-9.1858239,3.0012499099981955
688,BTZ-Neutral-wb97xd-1618,COc1c(C#N)c(N(C(C)=O)C(F)(F)C(F)(F)F)c2nsnc2c1C,-1767.100196,-1767.233044,11.4336,-8.9569878,-8.8318218,2.3747940799991083
689,BTZ-Neutral-wb97xd-1619,COc1c(C#N)c(N(C(C)=O)C(F)(F)C(F)(F)F)c2nsnc2c1C(F)(F)F,-2064.771503,-2064.916224,7.303999999999999,-9.5708454,-9.475882499999999,2.697858410003205
691,BTZ-Neutral-wb97xd-1620,COc1c(C#N)c(N(C(C)=O)C(F)(F)C(F)(F)F)c2nsnc2c1C#N,-1820.018712,-1820.1701329999999,6.0253,-9.5093508,-9.4296255,2.8801654099945626
692,BTZ-Neutral-wb97xd-1621,COc1c(C#N)c(N(C(C)=O)C(F)(F)C(F)(F)F)c2nsnc2c1OC,-1842.271214,-1842.4061239999999,13.3998,-8.360816699999999,-8.3719728,2.4309010999935614
693,BTZ-Neutral-wb97xd-1622,COc1c(C#N)c(N(C(C)=O)C(F)(F)C(F)(F)F)c2nsnc2c1OC(F)(F)F,-2139.964812,-2140.1090510000004,8.4735,-9.3648657,-9.159974400000001,2.684743190005384
694,BTZ-Neutral-wb97xd-1623,COc1c(C#N)c(N(C(C)=O)C(F)(F)C(F)(F)F)c2nsnc2c1SC,-2165.262891,-2165.399617,9.3978,-8.2876218,-8.663936099999999,2.480314460004916
695,BTZ-Neutral-wb97xd-1624,COc1c(C#N)c(N(C(C)=O)C(F)(F)C(F)(F)F)c2nsnc2c1SC(F)(F)F,-2462.935641,-2463.081459,6.292000000000001,-9.470712599999999,-9.388810500000002,2.7277077799989913
696,BTZ-Neutral-wb97xd-1625,COc1c(C#N)c(N(C(C)=O)C(F)(F)C(F)(F)F)c2nsnc2c1Br,-4298.973602,-4299.112857,2.91,-9.0677325,-8.9648787,2.5491285500013143
697,BTZ-Neutral-wb97xd-1626,COc1c(C#N)c(N(C(C)=O)C(F)(F)C(F)(F)F)c2nsnc2c1N(C)C,-1861.682242,-1861.806463,7.5291,-7.502341200000001,-7.944503699999999,2.1400534099947413
698,BTZ-Neutral-wb97xd-1627,COc1c(C#N)c(N(C(C)=O)C(F)(F)C(F)(F)F)c2nsnc2c1[N+](=O)[O-],-1932.2408269999999,-1932.39079,3.3339,-9.5871714,-9.4625496,2.8404932300019228
699,BTZ-Neutral-wb97xd-1628,COc1c(C#N)c(N(C(C)=O)C(F)(F)C(F)(F)F)c2nsnc2c1S(=O)(=O)N(C)C,-2410.19063,-2410.337013,7.136,-9.1314039,-9.0176661,2.743081429994204
700,BTZ-Neutral-wb97xd-1629,CC(=O)N(c1c(C#N)c(OC(F)(F)F)c(C)c2nsnc12)C(F)(F)C(F)(F)F,-2064.79484,-2064.9306460000003,6.0107,-9.3428256,-9.028550099999999,2.4552812600062497
702,BTZ-Neutral-wb97xd-1630,CC(=O)N(c1c(C#N)c(OC(F)(F)F)c(C(F)(F)F)c2nsnc12)C(F)(F)C(F)(F)F,-2362.458735,-2362.607085,5.9497,-9.860359800000001,-9.645128699999999,2.7966034999982776
703,BTZ-Neutral-wb97xd-1631,CC(=O)N(c1c(C#N)c(OC(F)(F)F)c(C#N)c2nsnc12)C(F)(F)C(F)(F)F,-2117.708354,-2117.866387,5.8731,-9.746894099999999,-9.616014,3.060077930004341
704,BTZ-Neutral-wb97xd-1632,COc1c(OC(F)(F)F)c(C#N)c(N(C(C)=O)C(F)(F)C(F)(F)F)c2nsnc12,-2139.96724,-2140.10648,12.8624,-8.727335400000001,-8.7569943,2.548720399999252
705,BTZ-Neutral-wb97xd-1633,CC(=O)N(c1c(C#N)c(OC(F)(F)F)c(OC(F)(F)F)c2nsnc12)C(F)(F)C(F)(F)F,-2437.657203,-2437.806373,7.4961,-9.686760000000001,-9.504180900000001,2.8189156999914395
706,BTZ-Neutral-wb97xd-1634,CSc1c(OC(F)(F)F)c(C#N)c(N(C(C)=O)C(F)(F)C(F)(F)F)c2nsnc12,-2462.957096,-2463.099508,10.8696,-8.709376800000001,-8.718900300000001,2.635030519991692
707,BTZ-Neutral-wb97xd-1635,CC(=O)N(c1c(C#N)c(OC(F)(F)F)c(SC(F)(F)F)c2nsnc12)C(F)(F)C(F)(F)F,-2760.628359,-2760.778382,7.189,-9.7134258,-9.575743199999998,2.8421258300039884
708,BTZ-Neutral-wb97xd-1636,CC(=O)N(c1c(C#N)c(OC(F)(F)F)c(Br)c2nsnc12)C(F)(F)C(F)(F)F,-4596.666129,-4596.811367,5.5531,-9.424727699999998,-9.2307204,2.7119259800017153
709,BTZ-Neutral-wb97xd-1637,CC(=O)N(c1c(C#N)c(OC(F)(F)F)c(N(C)C)c2nsnc12)C(F)(F)C(F)(F)F,-2159.379543,-2159.510889,8.2428,-7.8489966,-8.235106499999999,2.333924660003304
710,BTZ-Neutral-wb97xd-1638,CC(=O)N(c1c(C#N)c(OC(F)(F)F)c([N+](=O)[O-])c2nsnc12)C(F)(F)C(F)(F)F,-2229.929226,-2230.088034,5.8174,-9.894100199999999,-9.715330499999999,3.0811656799913134
711,BTZ-Neutral-wb97xd-1639,CC(=O)N(c1c(C#N)c(OC(F)(F)F)c(S(=O)(=O)N(C)C)c2nsnc12)C(F)(F)C(F)(F)F,-2707.878866,-2708.031457,11.9057,-9.1988847,-9.090044699999998,2.9120011100008014
713,BTZ-Neutral-wb97xd-1640,CSc1c(C#N)c(N(C(C)=O)C(F)(F)C(F)(F)F)c2nsnc2c1C,-2090.083705,-2090.2170309999997,5.274,-8.714818800000002,-8.7175398,2.387800459991017
714,BTZ-Neutral-wb97xd-1641,CSc1c(C#N)c(N(C(C)=O)C(F)(F)C(F)(F)F)c2nsnc2c1C(F)(F)F,-2387.753978,-2387.901385,5.8189,-8.979572099999999,-8.995626,2.7709444699980983
715,BTZ-Neutral-wb97xd-1642,CSc1c(C#N)c(N(C(C)=O)C(F)(F)C(F)(F)F)c2nsnc2c1C#N,-2143.00438,-2143.155022,5.7009,-9.061746300000001,-9.078888599999999,2.858968820001678
716,BTZ-Neutral-wb97xd-1643,COc1c(SC)c(C#N)c(N(C(C)=O)C(F)(F)C(F)(F)F)c2nsnc12,-2165.262659,-2165.3974510000003,13.6818,-8.3232669,-8.599992599999998,2.427690320007855
717,BTZ-Neutral-wb97xd-1644,CSc1c(C#N)c(N(C(C)=O)C(F)(F)C(F)(F)F)c2nsnc2c1OC(F)(F)F,-2462.95318,-2463.096197,3.7622,-8.959436700000003,-8.9063772,2.651492569996531
718,BTZ-Neutral-wb97xd-1645,CSc1c(C#N)c(N(C(C)=O)C(F)(F)C(F)(F)F)c2nsnc2c1SC,-2488.2476300000003,-2488.382762,6.9702,-8.285989200000001,-8.3869383,2.436941719996871
719,BTZ-Neutral-wb97xd-1646,CSc1c(C#N)c(N(C(C)=O)C(F)(F)C(F)(F)F)c2nsnc2c1SC(F)(F)F,-2785.923126,-2786.068182,5.9508,-8.817944700000002,-8.838896400000003,2.706973759995658
720,BTZ-Neutral-wb97xd-1647,CSc1c(C#N)c(N(C(C)=O)C(F)(F)C(F)(F)F)c2nsnc2c1Br,-4621.959524,-4622.098757,4.2632,-8.806516499999999,-8.834270700000003,2.548529929996639
721,BTZ-Neutral-wb97xd-1648,CSc1c(C#N)c(N(C(C)=O)C(F)(F)C(F)(F)F)c2nsnc2c1N(C)C,-2184.66902,-2184.8001010000003,8.7315,-7.637847000000002,-8.1083079,2.326714010012229
722,BTZ-Neutral-wb97xd-1649,CSc1c(C#N)c(N(C(C)=O)C(F)(F)C(F)(F)F)c2nsnc2c1[N+](=O)[O-],-2255.227939,-2255.376441,4.7213,-9.1885449,-9.2143944,2.800739420000209
724,BTZ-Neutral-wb97xd-1650,CSc1c(C#N)c(N(C(C)=O)C(F)(F)C(F)(F)F)c2nsnc2c1S(=O)(=O)N(C)C,-2733.174212,-2733.318171,6.0417,-8.629379400000001,-8.5180905,2.6771243899998716
725,BTZ-Neutral-wb97xd-1651,CC(=O)N(c1c(C#N)c(SC(F)(F)F)c(C)c2nsnc12)C(F)(F)C(F)(F)F,-2387.7609,-2387.895115,6.3362,-9.33303,-9.174395700000002,2.4119901499887195
726,BTZ-Neutral-wb97xd-1652,CC(=O)N(c1c(C#N)c(SC(F)(F)F)c(C(F)(F)F)c2nsnc12)C(F)(F)C(F)(F)F,-2685.421833,-2685.576314,7.5443,-9.8013141,-9.6802296,2.963428010000884
727,BTZ-Neutral-wb97xd-1653,CC(=O)N(c1c(C#N)c(SC(F)(F)F)c(C#N)c2nsnc12)C(F)(F)C(F)(F)F,-2440.674167,-2440.834871,6.2709,-9.7907022,-9.656012700000002,3.132755839997171
728,BTZ-Neutral-wb97xd-1654,COc1c(SC(F)(F)F)c(C#N)c(N(C(C)=O)C(F)(F)C(F)(F)F)c2nsnc12,-2462.9376989999996,-2463.074262,12.7359,-8.7651573,-8.818761,2.47587923001302
729,BTZ-Neutral-wb97xd-1655,CC(=O)N(c1c(C#N)c(SC(F)(F)F)c(OC(F)(F)F)c2nsnc12)C(F)(F)C(F)(F)F,-2760.6240399999997,-2760.775088,8.2409,-9.6636315,-9.450849300000002,2.8700160800047207
730,BTZ-Neutral-wb97xd-1656,CSc1c(SC(F)(F)F)c(C#N)c(N(C(C)=O)C(F)(F)C(F)(F)F)c2nsnc12,-2785.922247,-2786.0633559999997,8.0476,-8.541219,-8.7469266,2.599575889991497
731,BTZ-Neutral-wb97xd-1657,CC(=O)N(c1c(C#N)c(SC(F)(F)F)c(SC(F)(F)F)c2nsnc12)C(F)(F)C(F)(F)F,-3083.5923829999997,-3083.745082,7.5562,-9.7245819,-9.6026811,2.9149397900057554
732,BTZ-Neutral-wb97xd-1658,CC(=O)N(c1c(C#N)c(SC(F)(F)F)c(Br)c2nsnc12)C(F)(F)C(F)(F)F,-4919.632113000001,-4919.776372,5.3625,-9.398878199999999,-9.2465022,2.685287389991636
733,BTZ-Neutral-wb97xd-1659,CC(=O)N(c1c(C#N)c(SC(F)(F)F)c(N(C)C)c2nsnc12)C(F)(F)C(F)(F)F,-2482.348332,-2482.482657,14.0324,-7.970081100000002,-8.4089784,2.4149832499997226
735,BTZ-Neutral-wb97xd-1660,CC(=O)N(c1c(C#N)c(SC(F)(F)F)c([N+](=O)[O-])c2nsnc12)C(F)(F)C(F)(F)F,-2552.895023,-2553.0512949999998,6.936,-9.8802231,-9.758866500000002,3.0121611199923013
736,BTZ-Neutral-wb97xd-1661,CC(=O)N(c1c(C#N)c(SC(F)(F)F)c(S(=O)(=O)N(C)C)c2nsnc12)C(F)(F)C(F)(F)F,-3030.843836,-3030.992082,10.734000000000002,-9.2222853,-8.9564436,2.7937736600054226
737,BTZ-Neutral-wb97xd-1662,CC(=O)N(c1c(C#N)c(N(C)C)c(C)c2nsnc12)C(F)(F)C(F)(F)F,-1786.503582,-1786.6308600000002,3.2145,-7.8245076000000005,-8.203814999999999,2.223234380004363
738,BTZ-Neutral-wb97xd-1663,CC(=O)N(c1c(C#N)c(N(C)C)c(C(F)(F)F)c2nsnc12)C(F)(F)C(F)(F)F,-2084.175421,-2084.316302,2.3832,-8.460405300000001,-8.433195300000001,2.593372010007161
739,BTZ-Neutral-wb97xd-1664,CC(=O)N(c1c(C#N)c(N(C)C)c(C#N)c2nsnc12)C(F)(F)C(F)(F)F,-1839.432559,-1839.577548,5.341,-8.160279000000001,-8.531151300000001,2.7051506899971676
740,BTZ-Neutral-wb97xd-1665,COc1c(N(C)C)c(C#N)c(N(C(C)=O)C(F)(F)C(F)(F)F)c2nsnc12,-1861.680502,-1861.812975,11.7369,-8.122185,-8.436732600000001,2.3645903300032165
741,BTZ-Neutral-wb97xd-1666,CC(=O)N(c1c(C#N)c(N(C)C)c(OC(F)(F)F)c2nsnc12)C(F)(F)C(F)(F)F,-2159.374434,-2159.509828,1.0321,-8.080825800000001,-8.3760543,2.4440707400098063
742,BTZ-Neutral-wb97xd-1667,CSc1c(N(C)C)c(C#N)c(N(C(C)=O)C(F)(F)C(F)(F)F)c2nsnc12,-2184.666798,-2184.801179,4.1558,-7.9956585,-8.1842238,2.4165070099958754
743,BTZ-Neutral-wb97xd-1668,CC(=O)N(c1c(C#N)c(N(C)C)c(SC(F)(F)F)c2nsnc12)C(F)(F)C(F)(F)F,-2482.3434829999997,-2482.480685,1.8924,-8.094430800000001,-8.3580957,2.493266420009336
744,BTZ-Neutral-wb97xd-1669,CC(=O)N(c1c(C#N)c(N(C)C)c(Br)c2nsnc12)C(F)(F)C(F)(F)F,-4318.381291,-4318.517218,2.3169,-8.2302087,-8.3817684,2.458573670007218
746,BTZ-Neutral-wb97xd-1670,CC(=O)N(c1c(C#N)c(N(C)C)c(N(C)C)c2nsnc12)C(F)(F)C(F)(F)F,-1881.086386,-1881.215502,6.3296,-7.3537745999999995,-8.1401436,2.2732463600018313
747,BTZ-Neutral-wb97xd-1671,CC(=O)N(c1c(C#N)c(N(C)C)c([N+](=O)[O-])c2nsnc12)C(F)(F)C(F)(F)F,-1951.650665,-1951.795787,2.9262,-8.284900799999999,-8.5945506,2.7087696200034976
748,BTZ-Neutral-wb97xd-1672,CC(=O)N(c1c(C#N)c(N(C)C)c(S(=O)(=O)N(C)C)c2nsnc12)C(F)(F)C(F)(F)F,-2429.598136,-2429.736875,7.4897,-8.314287599999998,-8.1809586,2.535088189999642
749,BTZ-Neutral-wb97xd-1673,COc1c(C)c(C)c2nsnc2c1N(C(C)=O)C(F)(F)C(F)(F)F,-1714.17701,-1714.289132,10.1524,-8.5191789,-8.308029300000001,1.8108396199999837
750,BTZ-Neutral-wb97xd-1674,COc1c(C)c(C(F)(F)F)c2nsnc2c1N(C(C)=O)C(F)(F)C(F)(F)F,-2011.8438449999999,-2011.9655899999998,6.2089,-8.8685553,-8.899030499999999,2.072681449997795
751,BTZ-Neutral-wb97xd-1675,COc1c(C)c(C#N)c2nsnc2c1N(C(C)=O)C(F)(F)C(F)(F)F,-1767.097268,-1767.2274100000002,7.7839,-8.968960200000003,-8.9833815,2.3011638200055886
752,BTZ-Neutral-wb97xd-1676,COc1c(C)c(OC)c2nsnc2c1N(C(C)=O)C(F)(F)C(F)(F)F,-1789.352563,-1789.4666170000003,9.4363,-8.141504099999999,-7.962462299999999,1.8634093400095548
753,BTZ-Neutral-wb97xd-1677,COc1c(C)c(OC(F)(F)F)c2nsnc2c1N(C(C)=O)C(F)(F)C(F)(F)F,-2087.044639,-2087.165008,6.3718,-8.851957200000003,-8.618767499999999,2.0352404899933347
754,BTZ-Neutral-wb97xd-1678,COc1c(C)c(SC)c2nsnc2c1N(C(C)=O)C(F)(F)C(F)(F)F,-2112.33871,-2112.4528809999997,3.2305,-8.257690799999999,-8.416325099999998,1.8665929099922371
755,BTZ-Neutral-wb97xd-1679,COc1c(C)c(SC(F)(F)F)c2nsnc2c1N(C(C)=O)C(F)(F)C(F)(F)F,-2410.012199,-2410.133252,7.1963,-8.9216148,-8.9341314,2.053852130008213
757,BTZ-Neutral-wb97xd-1680,COc1c(C)c(Br)c2nsnc2c1N(C(C)=O)C(F)(F)C(F)(F)F,-4246.053405,-4246.174072999999,7.8296,-8.735498399999999,-8.6133255,2.0433762799882604
758,BTZ-Neutral-wb97xd-1681,COc1c(C)c(N(C)C)c2nsnc2c1N(C(C)=O)C(F)(F)C(F)(F)F,-1808.7577489999999,-1808.8703440000002,11.6431,-7.4035689,-8.151571800000001,1.8237099500077034
759,BTZ-Neutral-wb97xd-1682,COc1c(C)c([N+](=O)[O-])c2nsnc2c1N(C(C)=O)C(F)(F)C(F)(F)F,-1879.3213460000002,-1879.457772,5.1523,-9.2054151,-8.980660499999999,2.472151459994591
760,BTZ-Neutral-wb97xd-1683,COc1c(C)c(S(=O)(=O)N(C)C)c2nsnc2c1N(C(C)=O)C(F)(F)C(F)(F)F,-2357.272323,-2357.396847,11.6107,-9.022836,-8.896309500000003,2.1482980399955798
761,BTZ-Neutral-wb97xd-1684,COc1c(C(F)(F)F)c(C)c2nsnc2c1N(C(C)=O)C(F)(F)C(F)(F)F,-2011.8465899999999,-2011.971495,1.4513,-8.9444712,-8.7820275,2.1586650500034334
762,BTZ-Neutral-wb97xd-1685,COc1c(C(F)(F)F)c(C(F)(F)F)c2nsnc2c1N(C(C)=O)C(F)(F)C(F)(F)F,-2309.511657,-2309.649542,6.715,-9.1074591,-9.33303,2.511850850002629
763,BTZ-Neutral-wb97xd-1686,COc1c(C(F)(F)F)c(C#N)c2nsnc2c1N(C(C)=O)C(F)(F)C(F)(F)F,-2064.765665,-2064.913517,4.5557,-9.3343905,-9.164328,2.7830529200015555
764,BTZ-Neutral-wb97xd-1687,COc1c(C(F)(F)F)c(OC)c2nsnc2c1N(C(C)=O)C(F)(F)C(F)(F)F,-2087.020362,-2087.142743,3.6161,-8.4756429,-8.552919300000001,2.0899870099912237
765,BTZ-Neutral-wb97xd-1688,COc1c(C(F)(F)F)c(OC(F)(F)F)c2nsnc2c1N(C(C)=O)C(F)(F)C(F)(F)F,-2384.711715,-2384.845264,5.9924,-9.0729024,-8.9904561,2.393868290003538
766,BTZ-Neutral-wb97xd-1689,COc1c(C(F)(F)F)c(SC)c2nsnc2c1N(C(C)=O)C(F)(F)C(F)(F)F,-2410.003917,-2410.132228,5.2778,-8.4707451,-8.5559124,2.2513423099983587
768,BTZ-Neutral-wb97xd-1690,COc1c(C(F)(F)F)c(SC(F)(F)F)c2nsnc2c1N(C(C)=O)C(F)(F)C(F)(F)F,-2707.6781,-2707.816084,4.0516,-9.3147993,-9.190177499999999,2.5145446399989213
769,BTZ-Neutral-wb97xd-1691,COc1c(C(F)(F)F)c(Br)c2nsnc2c1N(C(C)=O)C(F)(F)C(F)(F)F,-4543.721264,-4543.855717,5.9297,-9.0231081,-8.856582900000003,2.418466130015677
770,BTZ-Neutral-wb97xd-1692,COc1c(C(F)(F)F)c(N(C)C)c2nsnc2c1N(C(C)=O)C(F)(F)C(F)(F)F,-2106.4251,-2106.54776,3.4559,-8.3540142,-8.524892999999999,2.0975785999998973
771,BTZ-Neutral-wb97xd-1693,COc1c(C(F)(F)F)c([N+](=O)[O-])c2nsnc2c1N(C(C)=O)C(F)(F)C(F)(F)F,-2176.9884739999998,-2177.137164,1.6897,-9.181198199999999,-9.195619500000001,2.805854900012041
772,BTZ-Neutral-wb97xd-1694,COc1c(C(F)(F)F)c(S(=O)(=O)N(C)C)c2nsnc2c1N(C(C)=O)C(F)(F)C(F)(F)F,-2654.9239820000003,-2655.06268,8.4659,-8.9422944,-8.930322,2.5339725799931783
773,BTZ-Neutral-wb97xd-1695,COc1c(C#N)c(C)c2nsnc2c1N(C(C)=O)C(F)(F)C(F)(F)F,-1767.102532,-1767.230679,3.1327,-9.0511344,-8.8535898,2.246879869997251
774,BTZ-Neutral-wb97xd-1696,COc1c(C#N)c(C(F)(F)F)c2nsnc2c1N(C(C)=O)C(F)(F)C(F)(F)F,-2064.768849,-2064.911078,6.6028,-9.496834199999999,-9.3254112,2.630051090001171
775,BTZ-Neutral-wb97xd-1697,COc1c(C#N)c(C#N)c2nsnc2c1N(C(C)=O)C(F)(F)C(F)(F)F,-1820.017096,-1820.1665440000002,9.3696,-9.4279929,-9.375205500000002,2.826480080003275
776,BTZ-Neutral-wb97xd-1698,COc1c(C#N)c(OC)c2nsnc2c1N(C(C)=O)C(F)(F)C(F)(F)F,-1842.276861,-1842.4026059999999,4.4113,-8.4519702,-8.5776804,2.1815214499952207
777,BTZ-Neutral-wb97xd-1699,COc1c(C#N)c(OC(F)(F)F)c2nsnc2c1N(C(C)=O)C(F)(F)C(F)(F)F,-2139.9680719999997,-2140.1083129999997,2.5996,-9.2954802,-9.0165777,2.575957610001633
780,BTZ-Neutral-wb97xd-1700,COc1c(C#N)c(SC)c2nsnc2c1N(C(C)=O)C(F)(F)C(F)(F)F,-2165.2636899999998,-2165.397966,5.4491,-8.4944178,-8.793727800000001,2.4136499600061825
781,BTZ-Neutral-wb97xd-1701,COc1c(C#N)c(SC(F)(F)F)c2nsnc2c1N(C(C)=O)C(F)(F)C(F)(F)F,-2462.930758,-2463.0749960000003,6.9148,-9.353709599999998,-8.9744022,2.684715980008546
782,BTZ-Neutral-wb97xd-1702,COc1c(C#N)c(Br)c2nsnc2c1N(C(C)=O)C(F)(F)C(F)(F)F,-4298.9760049999995,-4299.1143759999995,3.5055,-9.1646001,-8.9752185,2.5250749100001757
783,BTZ-Neutral-wb97xd-1703,COc1c(C#N)c(N(C)C)c2nsnc2c1N(C(C)=O)C(F)(F)C(F)(F)F,-1861.6900920000003,-1861.810791,10.8818,-7.825323900000001,-8.2027266,2.0442197899954113
784,BTZ-Neutral-wb97xd-1704,COc1c(C#N)c([N+](=O)[O-])c2nsnc2c1N(C(C)=O)C(F)(F)C(F)(F)F,-1932.2369879999999,-1932.3977300000001,8.1543,-9.621456,-9.3975177,3.1337898200069345
785,BTZ-Neutral-wb97xd-1705,COc1c(C#N)c(S(=O)(=O)N(C)C)c2nsnc2c1N(C(C)=O)C(F)(F)C(F)(F)F,-2410.1910589999998,-2410.336811,5.2591,-9.3670425,-9.0797049,2.725911920009712
786,BTZ-Neutral-wb97xd-1706,COc1c(OC)c(N(C(C)=O)C(F)(F)C(F)(F)F)c2nsnc2c1C,-1789.351046,-1789.464102,10.9564,-8.5646196,-8.4122436,1.8362537599976874
787,BTZ-Neutral-wb97xd-1707,COc1c(OC)c(C(F)(F)F)c2nsnc2c1N(C(C)=O)C(F)(F)C(F)(F)F,-2087.025337,-2087.148023,6.6536,-9.0192987,-9.120792,2.0982860600042974
788,BTZ-Neutral-wb97xd-1708,COc1c(OC)c(N(C(C)=O)C(F)(F)C(F)(F)F)c2nsnc2c1C#N,-1842.2752870000002,-1842.404369,8.181000000000001,-8.9980749,-9.0168498,2.2723212199979796
789,BTZ-Neutral-wb97xd-1709,COc1c(OC)c(N(C(C)=O)C(F)(F)C(F)(F)F)c2nsnc2c1OC,-1864.5251600000001,-1864.639151,11.012,-8.1997335,-8.164360499999999,1.861695109998416
791,BTZ-Neutral-wb97xd-1710,COc1c(OC)c(N(C(C)=O)C(F)(F)C(F)(F)F)c2nsnc2c1OC(F)(F)F,-2162.219466,-2162.339666,5.2281,-8.7945441,-8.860392299999997,2.030641999995664
792,BTZ-Neutral-wb97xd-1711,COc1c(OC)c(N(C(C)=O)C(F)(F)C(F)(F)F)c2nsnc2c1SC,-2187.515356,-2187.633668,9.0702,-8.2209573,-8.394829199999998,1.9792695200016308
793,BTZ-Neutral-wb97xd-1712,COc1c(OC)c(N(C(C)=O)C(F)(F)C(F)(F)F)c2nsnc2c1SC(F)(F)F,-2485.1932260000003,-2485.3170059999998,6.7095,-8.92488,-8.8993026,2.128053799984823
794,BTZ-Neutral-wb97xd-1713,COc1c(OC)c(N(C(C)=O)C(F)(F)C(F)(F)F)c2nsnc2c1Br,-4321.227876,-4321.346513,4.9569,-8.624209500000001,-8.6486985,1.9881127700133312
795,BTZ-Neutral-wb97xd-1714,COc1c(OC)c(N(C(C)=O)C(F)(F)C(F)(F)F)c2nsnc2c1N(C)C,-1883.9322710000001,-1884.039942,5.6364,-7.5564891,-7.7600199,1.6897279099995128
796,BTZ-Neutral-wb97xd-1715,COc1c(OC)c([N+](=O)[O-])c2nsnc2c1N(C(C)=O)C(F)(F)C(F)(F)F,-1954.4949190000002,-1954.626186,9.6797,-8.955083100000003,-9.1265061,2.331775069993264
797,BTZ-Neutral-wb97xd-1716,COc1c(OC)c(S(=O)(=O)N(C)C)c2nsnc2c1N(C(C)=O)C(F)(F)C(F)(F)F,-2432.44774,-2432.572511,5.9756,-8.856310800000001,-8.921070599999998,2.1550189099940784