,File Name,SMILES,Neutral Free Energy,Reduced Free Energy,Neutral Dipole moment,Neutral HOMO_Opt,Neutral HOMO_Unopt,Red Pot Li/Li+ (V)
1454,BTZ-Neutral-wb97xd-896,CCOCN(C(C)=O)c1c(C#N)c(C(F)(F)F)c(OC(F)(F)F)c2nsnc12,-1980.8077399999997,-1980.9517,8.9897,-9.1471857,-9.11535,2.6771516000090836
1455,BTZ-Neutral-wb97xd-897,CCOCN(C(C)=O)c1c(C#N)c(C(F)(F)F)c(SC)c2nsnc12,-2006.10315,-2006.241384,10.6766,-8.6666571,-8.7063837,2.521347140000308
1456,BTZ-Neutral-wb97xd-898,CCOCN(C(C)=O)c1c(C#N)c(C(F)(F)F)c(SC(F)(F)F)c2nsnc12,-2303.77253,-2303.918706,7.9854,-9.3613284,-9.1760283,2.7374489599929577
1457,BTZ-Neutral-wb97xd-899,CCOCN(C(C)=O)c1c(C#N)c(C(F)(F)F)c(Br)c2nsnc12,-4139.813245,-4139.955564,8.8806,-9.2252784,-9.0116799,2.6324999899888013
1460,BTZ-Neutral-wb97xd-900,CCOCN(C(C)=O)c1c(C#N)c(C(F)(F)F)c(N(C)C)c2nsnc12,-1702.5263120000002,-1702.6589620000002,13.4971,-7.9083144,-8.364353999999999,2.369406500000337
1461,BTZ-Neutral-wb97xd-901,CCOCN(C(C)=O)c1c(C#N)c(C(F)(F)F)c([N+](=O)[O-])c2nsnc12,-1773.0815949999999,-1773.228649,8.1097,-9.3452745,-9.0742629,2.7613393400006956
1462,BTZ-Neutral-wb97xd-902,CCOCN(C(C)=O)c1c(C#N)c(C(F)(F)F)c(S(=O)(=O)N(C)C)c2nsnc12,-2251.026605,-2251.17487,12.7853,-9.300650099999999,-8.999163300000003,2.794290649994837
1463,BTZ-Neutral-wb97xd-903,CCOCN(C(C)=O)c1c(C#N)c(C#N)c(C)c2nsnc12,-1363.193968,-1363.3278,8.5472,-9.0797049,-8.8549503,2.401568719999564
1464,BTZ-Neutral-wb97xd-904,CCOCN(C(C)=O)c1c(C#N)c(C#N)c(C(F)(F)F)c2nsnc12,-1660.860184,-1661.0119650000001,9.9437,-9.384184800000002,-9.3479955,2.889961010006952
1465,BTZ-Neutral-wb97xd-905,CCOCN(C(C)=O)c1c(C#N)c(C#N)c(C#N)c2nsnc12,-1416.106767,-1416.264041,8.728,-9.2709912,-9.2114013,3.0394255399977075
1466,BTZ-Neutral-wb97xd-906,CCOCN(C(C)=O)c1c(C#N)c(C#N)c(OC)c2nsnc12,-1438.370641,-1438.502935,11.7379,-8.619311699999999,-8.5270698,2.3597197400000463
1467,BTZ-Neutral-wb97xd-907,CCOCN(C(C)=O)c1c(C#N)c(C#N)c(OC(F)(F)F)c2nsnc12,-1736.0559440000002,-1736.20634,10.0619,-9.3490839,-9.0829701,2.8522751599938303
1468,BTZ-Neutral-wb97xd-908,CCOCN(C(C)=O)c1c(C#N)c(C#N)c(SC)c2nsnc12,-1761.356512,-1761.4989039999998,12.6848,-8.592918000000001,-8.819849399999997,2.6344863199930657
1469,BTZ-Neutral-wb97xd-909,CCOCN(C(C)=O)c1c(C#N)c(C#N)c(SC(F)(F)F)c2nsnc12,-2059.025487,-2059.173211,10.5626,-9.452209800000002,-9.0271896,2.7795700399979753
1471,BTZ-Neutral-wb97xd-910,CCOCN(C(C)=O)c1c(C#N)c(C#N)c(Br)c2nsnc12,-3895.067642,-3895.21041,13.1475,-9.2114013,-8.9207985,2.6447172800043566
1472,BTZ-Neutral-wb97xd-911,CCOCN(C(C)=O)c1c(C#N)c(C#N)c(N(C)C)c2nsnc12,-1457.78307,-1457.9138269999999,14.3206,-7.8963420000000015,-8.450609700000001,2.3178979699973663
1473,BTZ-Neutral-wb97xd-912,CCOCN(C(C)=O)c1c(C#N)c(C#N)c([N+](=O)[O-])c2nsnc12,-1528.328793,-1528.488916,10.3268,-9.405680699999998,-9.0976635,3.116946830003058
1474,BTZ-Neutral-wb97xd-913,CCOCN(C(C)=O)c1c(C#N)c(C#N)c(S(=O)(=O)N(C)C)c2nsnc12,-2006.285177,-2006.4334059999999,6.7181,-9.427176600000001,-9.0470529,2.79331108999731
1475,BTZ-Neutral-wb97xd-914,CCOCN(C(C)=O)c1c(C#N)c(OC)c(C)c2nsnc12,-1385.447191,-1385.573098,8.1772,-8.674275900000001,-8.3186412,2.1859294700026526
1476,BTZ-Neutral-wb97xd-915,CCOCN(C(C)=O)c1c(C#N)c(OC)c(C(F)(F)F)c2nsnc12,-1683.12058,-1683.255687,5.6354,-9.2775216,-9.0280059,2.436261470001682
1477,BTZ-Neutral-wb97xd-916,CCOCN(C(C)=O)c1c(C#N)c(OC)c(C#N)c2nsnc12,-1438.371108,-1438.5129279999999,9.2633,-9.1659606,-8.959708800000003,2.6189221999952403
1478,BTZ-Neutral-wb97xd-917,CCOCN(C(C)=O)c1c(C#N)c(OC)c(OC)c2nsnc12,-1460.618827,-1460.748052,11.04,-8.2780983,-8.258779200000001,2.276212249997436
1479,BTZ-Neutral-wb97xd-918,CCOCN(C(C)=O)c1c(C#N)c(OC)c(OC(F)(F)F)c2nsnc12,-1758.315798,-1758.4528719999998,5.5605,-9.1246014,-8.929505699999998,2.4897835399933825
1480,BTZ-Neutral-wb97xd-919,CCOCN(C(C)=O)c1c(C#N)c(OC)c(SC)c2nsnc12,-1783.61038,-1783.7415760000001,8.6864,-8.1844959,-8.1961962,2.329843160001235
1482,BTZ-Neutral-wb97xd-920,CCOCN(C(C)=O)c1c(C#N)c(OC)c(SC(F)(F)F)c2nsnc12,-2081.285111,-2081.419127,7.6409,-9.104466,-8.938485,2.406575359999297
1483,BTZ-Neutral-wb97xd-921,CCOCN(C(C)=O)c1c(C#N)c(OC)c(Br)c2nsnc12,-3917.325171,-3917.46021,4.5756,-8.824202999999997,-8.8233867,2.4344111900063536
1484,BTZ-Neutral-wb97xd-922,CCOCN(C(C)=O)c1c(C#N)c(OC)c(N(C)C)c2nsnc12,-1480.028143,-1480.151516,9.7052,-7.662336000000002,-7.725735300000001,2.1169793299973163
1485,BTZ-Neutral-wb97xd-923,CCOCN(C(C)=O)c1c(C#N)c(OC)c([N+](=O)[O-])c2nsnc12,-1550.592657,-1550.735496,3.1467,-9.1575255,-8.9651508,2.646649190002572
1486,BTZ-Neutral-wb97xd-924,CCOCN(C(C)=O)c1c(C#N)c(OC)c(S(=O)(=O)N(C)C)c2nsnc12,-2028.540475,-2028.6752989999998,13.4501,-8.914540200000003,-8.886786,2.4285610399932827
1487,BTZ-Neutral-wb97xd-925,CCOCN(C(C)=O)c1c(C#N)c(OC(F)(F)F)c(C)c2nsnc12,-1683.1435620000002,-1683.2768629999998,9.49,-9.0595695,-8.754273300000001,2.387120209989641
1488,BTZ-Neutral-wb97xd-926,CCOCN(C(C)=O)c1c(C#N)c(OC(F)(F)F)c(C(F)(F)F)c2nsnc12,-1980.8106059999998,-1980.952163,8.5542,-9.474794099999999,-9.3572469,2.6117659700040283
1489,BTZ-Neutral-wb97xd-927,CCOCN(C(C)=O)c1c(C#N)c(OC(F)(F)F)c(C#N)c2nsnc12,-1736.058328,-1736.2071039999998,12.4146,-9.0979356,-8.989367699999999,2.8081949599937595
1490,BTZ-Neutral-wb97xd-928,CCOCN(C(C)=O)c1c(C#N)c(OC(F)(F)F)c(OC)c2nsnc12,-1758.3149260000002,-1758.44605,8.5971,-8.624209500000001,-8.3246274,2.3278840399938074
1491,BTZ-Neutral-wb97xd-929,CCOCN(C(C)=O)c1c(C#N)c(OC(F)(F)F)c(OC(F)(F)F)c2nsnc12,-2056.008657,-2056.147855,8.0275,-9.3703077,-9.1137174,2.5475775800083236
1493,BTZ-Neutral-wb97xd-930,CCOCN(C(C)=O)c1c(C#N)c(OC(F)(F)F)c(SC)c2nsnc12,-2081.305124,-2081.439833,10.3299,-8.575231500000001,-8.638902900000001,2.42543188999809
1494,BTZ-Neutral-wb97xd-931,CCOCN(C(C)=O)c1c(C#N)c(OC(F)(F)F)c(SC(F)(F)F)c2nsnc12,-2378.976046,-2379.120484,4.7344,-9.219564300000002,-8.9926329,2.6901579799948063
1495,BTZ-Neutral-wb97xd-932,CCOCN(C(C)=O)c1c(C#N)c(OC(F)(F)F)c(Br)c2nsnc12,-4215.017543999999,-4215.156962,8.1614,-9.1229688,-8.9831094,2.5535637800179574
1496,BTZ-Neutral-wb97xd-933,CCOCN(C(C)=O)c1c(C#N)c(OC(F)(F)F)c(N(C)C)c2nsnc12,-1777.724172,-1777.852115,7.7109,-7.8158004,-8.0318478,2.2413290299988926
1497,BTZ-Neutral-wb97xd-934,CCOCN(C(C)=O)c1c(C#N)c(OC(F)(F)F)c([N+](=O)[O-])c2nsnc12,-1848.27825,-1848.4312899999998,3.7365,-9.1618791,-9.167049,2.9242183999916094
1498,BTZ-Neutral-wb97xd-935,CCOCN(C(C)=O)c1c(C#N)c(OC(F)(F)F)c(S(=O)(=O)N(C)C)c2nsnc12,-2326.231754,-2326.3727129999997,13.7904,-9.1694979,-9.0756234,2.595494389995615
1499,BTZ-Neutral-wb97xd-936,CCOCN(C(C)=O)c1c(C#N)c(SC)c(C)c2nsnc12,-1708.436886,-1708.563936,7.5266,-8.6612151,-8.4576843,2.2170305000014654
1500,BTZ-Neutral-wb97xd-937,CCOCN(C(C)=O)c1c(C#N)c(SC)c(C(F)(F)F)c2nsnc12,-2006.1048289999999,-2006.245266,5.5004,-8.8791672,-8.904200399999997,2.5812907700005416
1501,BTZ-Neutral-wb97xd-938,CCOCN(C(C)=O)c1c(C#N)c(SC)c(C#N)c2nsnc12,-1761.3565629999998,-1761.504053,4.4154,-8.9572599,-8.996170200000002,2.7732029000078633
1502,BTZ-Neutral-wb97xd-939,CCOCN(C(C)=O)c1c(C#N)c(SC)c(OC)c2nsnc12,-1783.608271,-1783.734788,9.2181,-8.187761100000001,-8.225855099999999,2.2025275699978675
1504,BTZ-Neutral-wb97xd-940,CCOCN(C(C)=O)c1c(C#N)c(SC)c(OC(F)(F)F)c2nsnc12,-2081.304314,-2081.442047,7.0993,-8.695227599999999,-8.6808063,2.507714930000698
1505,BTZ-Neutral-wb97xd-941,CCOCN(C(C)=O)c1c(C#N)c(SC)c(SC)c2nsnc12,-2106.596547,-2106.7287530000003,9.8088,-8.317824900000002,-8.307485100000001,2.3573252600060917
1506,BTZ-Neutral-wb97xd-942,CCOCN(C(C)=O)c1c(C#N)c(SC)c(SC(F)(F)F)c2nsnc12,-2404.271893,-2404.408412,8.914,-8.7110094,-8.731416900000001,2.4746819900036687
1507,BTZ-Neutral-wb97xd-943,CCOCN(C(C)=O)c1c(C#N)c(SC)c(Br)c2nsnc12,-4240.308159,-4240.446618,4.2353,-8.7613479,-8.779578599999999,2.5274693899941303
1508,BTZ-Neutral-wb97xd-944,CCOCN(C(C)=O)c1c(C#N)c(SC)c(N(C)C)c2nsnc12,-1803.016647,-1803.146255,13.1125,-7.5415236,-8.016338099999999,2.286633680005152
1509,BTZ-Neutral-wb97xd-945,CCOCN(C(C)=O)c1c(C#N)c(SC)c([N+](=O)[O-])c2nsnc12,-1873.576487,-1873.722103,3.4448,-9.093582000000001,-9.0535833,2.722211360000495
1510,BTZ-Neutral-wb97xd-946,CCOCN(C(C)=O)c1c(C#N)c(SC)c(S(=O)(=O)N(C)C)c2nsnc12,-2351.5224789999997,-2351.663329,6.0782,-8.5692453,-8.4340116,2.592528500006197
1511,BTZ-Neutral-wb97xd-947,CCOCN(C(C)=O)c1c(C#N)c(SC(F)(F)F)c(C)c2nsnc12,-2006.1121460000002,-2006.242397,6.066,-9.006782099999999,-8.7501918,2.3041297099950064
1512,BTZ-Neutral-wb97xd-948,CCOCN(C(C)=O)c1c(C#N)c(SC(F)(F)F)c(C(F)(F)F)c2nsnc12,-2303.773163,-2303.918558,11.6398,-9.3460908,-9.156981300000002,2.7161979500002102
1513,BTZ-Neutral-wb97xd-949,CCOCN(C(C)=O)c1c(C#N)c(SC(F)(F)F)c(C#N)c2nsnc12,-2059.027318,-2059.177804,12.5768,-9.3885384,-9.14256,2.854724060000021
1515,BTZ-Neutral-wb97xd-950,CCOCN(C(C)=O)c1c(C#N)c(SC(F)(F)F)c(OC)c2nsnc12,-2081.283895,-2081.4150210000003,7.301,-8.5496541,-8.3825847,2.3279384600060444
1516,BTZ-Neutral-wb97xd-951,CCOCN(C(C)=O)c1c(C#N)c(SC(F)(F)F)c(OC(F)(F)F)c2nsnc12,-2378.97155,-2379.1177399999997,4.9239999999999995,-9.079977,-8.891139599999999,2.737829899985809
1517,BTZ-Neutral-wb97xd-952,CCOCN(C(C)=O)c1c(C#N)c(SC(F)(F)F)c(SC)c2nsnc12,-2404.27035,-2404.408791,11.9677,-8.464214700000001,-8.6756364,2.526979610001554
1518,BTZ-Neutral-wb97xd-953,CCOCN(C(C)=O)c1c(C#N)c(SC(F)(F)F)c(SC(F)(F)F)c2nsnc12,-2701.9414030000003,-2702.0846149999998,7.6519,-9.373028699999999,-9.2573862,2.6567985199862276
1519,BTZ-Neutral-wb97xd-954,CCOCN(C(C)=O)c1c(C#N)c(SC(F)(F)F)c(Br)c2nsnc12,-4537.982,-4538.1198810000005,6.2905,-9.1327644,-8.989367699999999,2.5117420100152774
1520,BTZ-Neutral-wb97xd-955,CCOCN(C(C)=O)c1c(C#N)c(SC(F)(F)F)c(N(C)C)c2nsnc12,-2100.693342,-2100.824004,13.567,-7.8397452,-8.275921499999999,2.315313020000799
1521,BTZ-Neutral-wb97xd-956,CCOCN(C(C)=O)c1c(C#N)c(SC(F)(F)F)c([N+](=O)[O-])c2nsnc12,-2171.2484449999997,-2171.397857,12.1291,-9.463638000000001,-9.150723,2.8255005200057486
1522,BTZ-Neutral-wb97xd-957,CCOCN(C(C)=O)c1c(C#N)c(SC(F)(F)F)c(S(=O)(=O)N(C)C)c2nsnc12,-2649.193471,-2649.337417,14.3065,-9.2143944,-8.9651508,2.676770660003858
1523,BTZ-Neutral-wb97xd-958,CCOCN(C(C)=O)c1c(C#N)c(N(C)C)c(C)c2nsnc12,-1404.851756,-1404.974076,5.8362,-7.8027396000000016,-8.0402829,2.088327199998507
1524,BTZ-Neutral-wb97xd-959,CCOCN(C(C)=O)c1c(C#N)c(N(C)C)c(C(F)(F)F)c2nsnc12,-1702.526839,-1702.659864,7.1813,-8.3986386,-8.347755900000001,2.3796102499962286
1526,BTZ-Neutral-wb97xd-960,CCOCN(C(C)=O)c1c(C#N)c(N(C)C)c(C#N)c2nsnc12,-1457.782997,-1457.922155,2.4755,-8.0832747,-8.4889758,2.546489179998698
1527,BTZ-Neutral-wb97xd-961,CCOCN(C(C)=O)c1c(C#N)c(N(C)C)c(OC)c2nsnc12,-1480.024929,-1480.14536,4.156000000000001,-7.922191500000001,-7.679206200000001,2.0369275100014486
1528,BTZ-Neutral-wb97xd-962,CCOCN(C(C)=O)c1c(C#N)c(N(C)C)c(OC(F)(F)F)c2nsnc12,-1777.7238989999998,-1777.853507,6.7943,-8.0152497,-8.334967200000001,2.286633680005152
1529,BTZ-Neutral-wb97xd-963,CCOCN(C(C)=O)c1c(C#N)c(N(C)C)c(SC)c2nsnc12,-1803.016749,-1803.1453199999999,9.7651,-8.012256599999999,-8.1298038,2.258416909999057
1530,BTZ-Neutral-wb97xd-964,CCOCN(C(C)=O)c1c(C#N)c(N(C)C)c(SC(F)(F)F)c2nsnc12,-2100.694097,-2100.8242010000004,6.6378,-7.997835300000001,-8.2400043,2.300129840008199
1531,BTZ-Neutral-wb97xd-965,CCOCN(C(C)=O)c1c(C#N)c(N(C)C)c(Br)c2nsnc12,-3936.731443,-3936.861871,5.3861,-8.138238900000001,-8.352653700000001,2.308945879998314
1532,BTZ-Neutral-wb97xd-966,CCOCN(C(C)=O)c1c(C#N)c(N(C)C)c(N(C)C)c2nsnc12,-1499.4346039999998,-1499.55879,12.110999999999999,-7.3072455,-8.073207,2.1391010600064257
1533,BTZ-Neutral-wb97xd-967,CCOCN(C(C)=O)c1c(C#N)c(N(C)C)c([N+](=O)[O-])c2nsnc12,-1569.996911,-1570.138573,3.4778,-8.6590383,-8.5855713,2.6146230199999083
1534,BTZ-Neutral-wb97xd-968,CCOCN(C(C)=O)c1c(C#N)c(N(C)C)c(S(=O)(=O)N(C)C)c2nsnc12,-2047.9476510000002,-2048.077133,10.0167,-8.0084472,-7.9104912,2.2832052199890613
1535,BTZ-Neutral-wb97xd-969,CCOCN(C(C)=O)c1c(OC)c(C)c(C)c2nsnc12,-1332.518576,-1332.624434,7.6844,-8.246534700000002,-7.9959305999999994,1.64039618000342
1537,BTZ-Neutral-wb97xd-970,CCOCN(C(C)=O)c1c(OC)c(C)c(C(F)(F)F)c2nsnc12,-1630.193242,-1630.312838,11.3981,-8.749375500000001,-8.583666599999999,2.014207160000037
1538,BTZ-Neutral-wb97xd-971,CCOCN(C(C)=O)c1c(OC)c(C)c(C#N)c2nsnc12,-1385.44742,-1385.571453,12.9207,-8.8549503,-8.374965900000001,2.1349379300014695
1539,BTZ-Neutral-wb97xd-972,CCOCN(C(C)=O)c1c(OC)c(C)c(OC)c2nsnc12,-1407.69678,-1407.803625,8.4728,-8.2941522,-7.6952601,1.667252450000576
1540,BTZ-Neutral-wb97xd-973,CCOCN(C(C)=O)c1c(OC)c(C)c(OC(F)(F)F)c2nsnc12,-1705.396675,-1705.5146399999999,3.7089,-8.6655687,-8.2340181,1.9698276499976284
1541,BTZ-Neutral-wb97xd-974,CCOCN(C(C)=O)c1c(OC)c(C)c(SC)c2nsnc12,-1730.684896,-1730.793805,5.5417,-8.1708909,-8.1801423,1.7234138900010796
1542,BTZ-Neutral-wb97xd-975,CCOCN(C(C)=O)c1c(OC)c(C)c(SC(F)(F)F)c2nsnc12,-2028.362884,-2028.4822170000002,5.2807,-8.7292401,-8.393468700000001,2.007050930008825
1543,BTZ-Neutral-wb97xd-976,CCOCN(C(C)=O)c1c(OC)c(C)c(Br)c2nsnc12,-3864.400396,-3864.5130280000003,8.3287,-8.4530586,-8.235378599999999,1.824716720008255
1544,BTZ-Neutral-wb97xd-977,CCOCN(C(C)=O)c1c(OC)c(C)c(N(C)C)c2nsnc12,-1427.102377,-1427.2116740000001,8.0551,-7.5611148,-7.959741300000001,1.7339713700053585
1545,BTZ-Neutral-wb97xd-978,CCOCN(C(C)=O)c1c(OC)c(C)c([N+](=O)[O-])c2nsnc12,-1497.668119,-1497.7998619999998,4.5407,-8.560266,-8.393740800000002,2.344727029997684
1546,BTZ-Neutral-wb97xd-979,CCOCN(C(C)=O)c1c(OC)c(C)c(S(=O)(=O)N(C)C)c2nsnc12,-1975.615382,-1975.736254,5.539,-8.764341,-8.395917599999999,2.048927119998994
1548,BTZ-Neutral-wb97xd-980,CCOCN(C(C)=O)c1c(OC)c(C(F)(F)F)c(C)c2nsnc12,-1630.193782,-1630.309398,6.6212,-8.463126299999999,-8.24463,1.9059113600012372
1549,BTZ-Neutral-wb97xd-981,CCOCN(C(C)=O)c1c(OC)c(C(F)(F)F)c(C(F)(F)F)c2nsnc12,-1927.859211,-1927.994421,4.5325,-8.909098199999999,-8.6731875,2.439064100003886
1550,BTZ-Neutral-wb97xd-982,CCOCN(C(C)=O)c1c(OC)c(C(F)(F)F)c(C#N)c2nsnc12,-1683.113224,-1683.250239,13.9709,-8.7648852,-8.6005368,2.488178150000529
1551,BTZ-Neutral-wb97xd-983,CCOCN(C(C)=O)c1c(OC)c(C(F)(F)F)c(OC)c2nsnc12,-1705.368926,-1705.487116,4.3504,-8.3112945,-7.986951299999999,1.9759498999976384
1552,BTZ-Neutral-wb97xd-984,CCOCN(C(C)=O)c1c(OC)c(C(F)(F)F)c(OC(F)(F)F)c2nsnc12,-2003.0639219999998,-2003.1916780000001,4.1802,-8.808693300000002,-8.3545584,2.236240760008646
1553,BTZ-Neutral-wb97xd-985,CCOCN(C(C)=O)c1c(OC)c(C(F)(F)F)c(SC)c2nsnc12,-2028.354727,-2028.483045,3.4675,-8.367075,-8.3504769,2.2515327800009706
1554,BTZ-Neutral-wb97xd-986,CCOCN(C(C)=O)c1c(OC)c(C(F)(F)F)c(SC(F)(F)F)c2nsnc12,-2326.025616,-2326.156918,8.3989,-8.882704500000003,-8.5798572,2.332727420006327
1555,BTZ-Neutral-wb97xd-987,CCOCN(C(C)=O)c1c(OC)c(C(F)(F)F)c(Br)c2nsnc12,-4162.0658619999995,-4162.194146,1.4207,-8.6008089,-8.356190999999999,2.250607640009494
1556,BTZ-Neutral-wb97xd-988,CCOCN(C(C)=O)c1c(OC)c(C(F)(F)F)c(N(C)C)c2nsnc12,-1724.772739,-1724.894488,5.1087,-8.334150900000001,-8.1706188,2.0727902899975197
1557,BTZ-Neutral-wb97xd-989,CCOCN(C(C)=O)c1c(OC)c(C(F)(F)F)c([N+](=O)[O-])c2nsnc12,-1795.337598,-1795.4801739999998,4.9745,-8.820937800000003,-8.6946834,2.6394929599927996
1559,BTZ-Neutral-wb97xd-990,CCOCN(C(C)=O)c1c(OC)c(C(F)(F)F)c(S(=O)(=O)N(C)C)c2nsnc12,-2273.277007,-2273.415072,4.4353,-8.826379800000002,-8.861480700000003,2.516748649990263
1560,BTZ-Neutral-wb97xd-991,CCOCN(C(C)=O)c1c(OC)c(C#N)c(C)c2nsnc12,-1385.449447,-1385.5755390000002,4.4018,-8.685976199999999,-8.5923738,2.1909633200054097
1561,BTZ-Neutral-wb97xd-992,CCOCN(C(C)=O)c1c(OC)c(C#N)c(C(F)(F)F)c2nsnc12,-1683.1139829999997,-1683.253873,12.2135,-9.0927657,-8.6976765,2.5664069000102794
1562,BTZ-Neutral-wb97xd-993,CCOCN(C(C)=O)c1c(OC)c(C#N)c(C#N)c2nsnc12,-1438.3644960000001,-1438.508715,13.8413,-9.1060986,-8.679445800000002,2.6841989899943837
1563,BTZ-Neutral-wb97xd-994,CCOCN(C(C)=O)c1c(OC)c(C#N)c(OC)c2nsnc12,-1460.626167,-1460.748241,5.5319,-8.208712799999999,-8.173339799999999,2.0816335400030335
1564,BTZ-Neutral-wb97xd-995,CCOCN(C(C)=O)c1c(OC)c(C#N)c(OC(F)(F)F)c2nsnc12,-1758.313427,-1758.4478170000002,4.5619,-8.9422944,-8.3991828,2.416751900004538
1565,BTZ-Neutral-wb97xd-996,CCOCN(C(C)=O)c1c(OC)c(C#N)c(SC)c2nsnc12,-1783.612643,-1783.7435829999997,6.3841,-8.3624493,-8.392108200000001,2.3228773999940744
1566,BTZ-Neutral-wb97xd-997,CCOCN(C(C)=O)c1c(OC)c(C#N)c(SC(F)(F)F)c2nsnc12,-2081.280554,-2081.4197059999997,13.0178,-9.0054216,-8.7469266,2.546325919992924
1567,BTZ-Neutral-wb97xd-998,CCOCN(C(C)=O)c1c(OC)c(C#N)c(Br)c2nsnc12,-3917.322724,-3917.4554770000004,0.5875,-8.5322397,-8.511288,2.372209130008728
1568,BTZ-Neutral-wb97xd-999,CCOCN(C(C)=O)c1c(OC)c(C#N)c(N(C)C)c2nsnc12,-1480.036372,-1480.152714,7.4419,-7.615534800000002,-8.1036822,1.9256658200008567