Entry Number,File Name,SMILES,Ered,HOMO,Gsol,Absorption Wavelength
655,BTZ-Neutral-wb97xd-1655,CC(=O)N(c1c(C#N)c(SC(F)(F)F)c(OC(F)(F)F)c2nsnc12)C(F)(F)C(F)(F)F,2.87001608,-9.6636315,-0.51016029,309.61
656,BTZ-Neutral-wb97xd-1656,CSc1c(SC(F)(F)F)c(C#N)c(N(C(C)=O)C(F)(F)C(F)(F)F)c2nsnc12,2.59957589,-8.541219,-0.51141195,386.37
657,BTZ-Neutral-wb97xd-1657,CC(=O)N(c1c(C#N)c(SC(F)(F)F)c(SC(F)(F)F)c2nsnc12)C(F)(F)C(F)(F)F,2.91493979,-9.7245819,-0.53611863,320.2
658,BTZ-Neutral-wb97xd-1658,CC(=O)N(c1c(C#N)c(SC(F)(F)F)c(Br)c2nsnc12)C(F)(F)C(F)(F)F,2.68528739,-9.3988782,-0.45935922,321.06
659,BTZ-Neutral-wb97xd-1659,CC(=O)N(c1c(C#N)c(SC(F)(F)F)c(N(C)C)c2nsnc12)C(F)(F)C(F)(F)F,2.41498325,-7.9700811,-0.69453525,419.18
660,BTZ-Neutral-wb97xd-1660,CC(=O)N(c1c(C#N)c(SC(F)(F)F)c([N+](=O)[O-])c2nsnc12)C(F)(F)C(F)(F)F,3.01216112,-9.8802231,-0.51388806,316.59
661,BTZ-Neutral-wb97xd-1661,CC(=O)N(c1c(C#N)c(SC(F)(F)F)c(S(=O)(=O)N(C)C)c2nsnc12)C(F)(F)C(F)(F)F,2.79377366,-9.2222853,-0.75249255,325.81
662,BTZ-Neutral-wb97xd-1662,CC(=O)N(c1c(C#N)c(N(C)C)c(C)c2nsnc12)C(F)(F)C(F)(F)F,2.22323438,-7.8245076,-0.54939711,425.6
663,BTZ-Neutral-wb97xd-1663,CC(=O)N(c1c(C#N)c(N(C)C)c(C(F)(F)F)c2nsnc12)C(F)(F)C(F)(F)F,2.59337201,-8.4604053,-0.53421393,401.78
664,BTZ-Neutral-wb97xd-1664,CC(=O)N(c1c(C#N)c(N(C)C)c(C#N)c2nsnc12)C(F)(F)C(F)(F)F,2.70515069,-8.160279,-0.80527995,435.84
665,BTZ-Neutral-wb97xd-1665,COc1c(N(C)C)c(C#N)c(N(C(C)=O)C(F)(F)C(F)(F)F)c2nsnc12,2.36459033,-8.122185,-0.68887557,402.97
666,BTZ-Neutral-wb97xd-1666,CC(=O)N(c1c(C#N)c(N(C)C)c(OC(F)(F)F)c2nsnc12)C(F)(F)C(F)(F)F,2.44407074,-8.0808258,-0.50104494,414.25
667,BTZ-Neutral-wb97xd-1667,CSc1c(N(C)C)c(C#N)c(N(C(C)=O)C(F)(F)C(F)(F)F)c2nsnc12,2.41650701,-7.9956585,-0.5662401,425.28
668,BTZ-Neutral-wb97xd-1668,CC(=O)N(c1c(C#N)c(N(C)C)c(SC(F)(F)F)c2nsnc12)C(F)(F)C(F)(F)F,2.49326642,-8.0944308,-0.5765799,426.79
669,BTZ-Neutral-wb97xd-1669,CC(=O)N(c1c(C#N)c(N(C)C)c(Br)c2nsnc12)C(F)(F)C(F)(F)F,2.45857367,-8.2302087,-0.54839034,400.68
670,BTZ-Neutral-wb97xd-1670,CC(=O)N(c1c(C#N)c(N(C)C)c(N(C)C)c2nsnc12)C(F)(F)C(F)(F)F,2.27324636,-7.3537746,-0.60063354,487.49
671,BTZ-Neutral-wb97xd-1671,CC(=O)N(c1c(C#N)c(N(C)C)c([N+](=O)[O-])c2nsnc12)C(F)(F)C(F)(F)F,2.70876962,-8.2849008,-0.66204651,433.4
672,BTZ-Neutral-wb97xd-1672,CC(=O)N(c1c(C#N)c(N(C)C)c(S(=O)(=O)N(C)C)c2nsnc12)C(F)(F)C(F)(F)F,2.53508819,-8.3142876,-0.75284628,415.7
673,BTZ-Neutral-wb97xd-1673,COc1c(C)c(C)c2nsnc2c1N(C(C)=O)C(F)(F)C(F)(F)F,1.81083962,-8.5191789,-0.60849723,330.71
674,BTZ-Neutral-wb97xd-1674,COc1c(C)c(C(F)(F)F)c2nsnc2c1N(C(C)=O)C(F)(F)C(F)(F)F,2.07268145,-8.8685553,-0.53244528,318.72
675,BTZ-Neutral-wb97xd-1675,COc1c(C)c(C#N)c2nsnc2c1N(C(C)=O)C(F)(F)C(F)(F)F,2.30116382,-8.9689602,-0.63363927,326.7
676,BTZ-Neutral-wb97xd-1676,COc1c(C)c(OC)c2nsnc2c1N(C(C)=O)C(F)(F)C(F)(F)F,1.86340934,-8.1415041,-0.54988689,360.62
677,BTZ-Neutral-wb97xd-1677,COc1c(C)c(OC(F)(F)F)c2nsnc2c1N(C(C)=O)C(F)(F)C(F)(F)F,2.03524049,-8.8519572,-0.51949332,315.68
678,BTZ-Neutral-wb97xd-1678,COc1c(C)c(SC)c2nsnc2c1N(C(C)=O)C(F)(F)C(F)(F)F,1.86659291,-8.2576908,-0.52292178,353.56
679,BTZ-Neutral-wb97xd-1679,COc1c(C)c(SC(F)(F)F)c2nsnc2c1N(C(C)=O)C(F)(F)C(F)(F)F,2.05385213,-8.9216148,-0.53707098,314.95
680,BTZ-Neutral-wb97xd-1680,COc1c(C)c(Br)c2nsnc2c1N(C(C)=O)C(F)(F)C(F)(F)F,2.04337628,-8.7354984,-0.59146377,325.07
681,BTZ-Neutral-wb97xd-1681,COc1c(C)c(N(C)C)c2nsnc2c1N(C(C)=O)C(F)(F)C(F)(F)F,1.82370995,-7.4035689,-0.6100482,427.14
682,BTZ-Neutral-wb97xd-1682,COc1c(C)c([N+](=O)[O-])c2nsnc2c1N(C(C)=O)C(F)(F)C(F)(F)F,2.47215146,-9.2054151,-0.65706708,328.9
683,BTZ-Neutral-wb97xd-1683,COc1c(C)c(S(=O)(=O)N(C)C)c2nsnc2c1N(C(C)=O)C(F)(F)C(F)(F)F,2.14829804,-9.022836,-0.98892024,310.32
684,BTZ-Neutral-wb97xd-1684,COc1c(C(F)(F)F)c(C)c2nsnc2c1N(C(C)=O)C(F)(F)C(F)(F)F,2.15866505,-8.9444712,-0.41503413,318.85
685,BTZ-Neutral-wb97xd-1685,COc1c(C(F)(F)F)c(C(F)(F)F)c2nsnc2c1N(C(C)=O)C(F)(F)C(F)(F)F,2.51185085,-9.1074591,-0.45154995,329.56
686,BTZ-Neutral-wb97xd-1686,COc1c(C(F)(F)F)c(C#N)c2nsnc2c1N(C(C)=O)C(F)(F)C(F)(F)F,2.78305292,-9.3343905,-0.69796371,336.86
687,BTZ-Neutral-wb97xd-1687,COc1c(C(F)(F)F)c(OC)c2nsnc2c1N(C(C)=O)C(F)(F)C(F)(F)F,2.08998701,-8.4756429,-0.51086775,343.94
688,BTZ-Neutral-wb97xd-1688,COc1c(C(F)(F)F)c(OC(F)(F)F)c2nsnc2c1N(C(C)=O)C(F)(F)C(F)(F)F,2.39386829,-9.0729024,-0.42308829,322.64
689,BTZ-Neutral-wb97xd-1689,COc1c(C(F)(F)F)c(SC)c2nsnc2c1N(C(C)=O)C(F)(F)C(F)(F)F,2.25134231,-8.4707451,-0.50071842,374.76
690,BTZ-Neutral-wb97xd-1690,COc1c(C(F)(F)F)c(SC(F)(F)F)c2nsnc2c1N(C(C)=O)C(F)(F)C(F)(F)F,2.51454464,-9.3147993,-0.41400015,323.18
691,BTZ-Neutral-wb97xd-1691,COc1c(C(F)(F)F)c(Br)c2nsnc2c1N(C(C)=O)C(F)(F)C(F)(F)F,2.41846613,-9.0231081,-0.56795433,331.85
692,BTZ-Neutral-wb97xd-1692,COc1c(C(F)(F)F)c(N(C)C)c2nsnc2c1N(C(C)=O)C(F)(F)C(F)(F)F,2.0975786,-8.3540142,-0.50858211,401.73
693,BTZ-Neutral-wb97xd-1693,COc1c(C(F)(F)F)c([N+](=O)[O-])c2nsnc2c1N(C(C)=O)C(F)(F)C(F)(F)F,2.8058549,-9.1811982,-0.5817498,327.76
694,BTZ-Neutral-wb97xd-1694,COc1c(C(F)(F)F)c(S(=O)(=O)N(C)C)c2nsnc2c1N(C(C)=O)C(F)(F)C(F)(F)F,2.53397258,-8.9422944,-0.80873562,340.26
695,BTZ-Neutral-wb97xd-1695,COc1c(C#N)c(C)c2nsnc2c1N(C(C)=O)C(F)(F)C(F)(F)F,2.24687987,-9.0511344,-0.53018685,317.03
696,BTZ-Neutral-wb97xd-1696,COc1c(C#N)c(C(F)(F)F)c2nsnc2c1N(C(C)=O)C(F)(F)C(F)(F)F,2.63005109,-9.4968342,-0.50711277,317.07
697,BTZ-Neutral-wb97xd-1697,COc1c(C#N)c(C#N)c2nsnc2c1N(C(C)=O)C(F)(F)C(F)(F)F,2.82648008,-9.4279929,-0.61230663,337.44
698,BTZ-Neutral-wb97xd-1698,COc1c(C#N)c(OC)c2nsnc2c1N(C(C)=O)C(F)(F)C(F)(F)F,2.18152145,-8.4519702,-0.5790288,355.23
699,BTZ-Neutral-wb97xd-1699,COc1c(C#N)c(OC(F)(F)F)c2nsnc2c1N(C(C)=O)C(F)(F)C(F)(F)F,2.57595761,-9.2954802,-0.57709689,320.06
700,BTZ-Neutral-wb97xd-1700,COc1c(C#N)c(SC)c2nsnc2c1N(C(C)=O)C(F)(F)C(F)(F)F,2.41364996,-8.4944178,-0.54885291,379.91
701,BTZ-Neutral-wb97xd-1701,COc1c(C#N)c(SC(F)(F)F)c2nsnc2c1N(C(C)=O)C(F)(F)C(F)(F)F,2.68471598,-9.3537096,-0.54137016,327.84
702,BTZ-Neutral-wb97xd-1702,COc1c(C#N)c(Br)c2nsnc2c1N(C(C)=O)C(F)(F)C(F)(F)F,2.52507491,-9.1646001,-0.59957235,329.44
703,BTZ-Neutral-wb97xd-1703,COc1c(C#N)c(N(C)C)c2nsnc2c1N(C(C)=O)C(F)(F)C(F)(F)F,2.04421979,-7.8253239,-0.6954876,397.61
704,BTZ-Neutral-wb97xd-1704,COc1c(C#N)c([N+](=O)[O-])c2nsnc2c1N(C(C)=O)C(F)(F)C(F)(F)F,3.13378982,-9.621456,-0.57538266,337.66
705,BTZ-Neutral-wb97xd-1705,COc1c(C#N)c(S(=O)(=O)N(C)C)c2nsnc2c1N(C(C)=O)C(F)(F)C(F)(F)F,2.72591192,-9.3670425,-0.85363212,320.84
706,BTZ-Neutral-wb97xd-1706,COc1c(OC)c(N(C(C)=O)C(F)(F)C(F)(F)F)c2nsnc2c1C,1.83625376,-8.5646196,-0.62378925,328.28
707,BTZ-Neutral-wb97xd-1707,COc1c(OC)c(C(F)(F)F)c2nsnc2c1N(C(C)=O)C(F)(F)C(F)(F)F,2.09828606,-9.0192987,-0.51171126,309.28
708,BTZ-Neutral-wb97xd-1708,COc1c(OC)c(N(C(C)=O)C(F)(F)C(F)(F)F)c2nsnc2c1C#N,2.27232122,-8.9980749,-0.61608882,325.21
709,BTZ-Neutral-wb97xd-1709,COc1c(OC)c(N(C(C)=O)C(F)(F)C(F)(F)F)c2nsnc2c1OC,1.86169511,-8.1997335,-0.62063289,357.79
710,BTZ-Neutral-wb97xd-1710,COc1c(OC)c(N(C(C)=O)C(F)(F)C(F)(F)F)c2nsnc2c1OC(F)(F)F,2.030642,-8.7945441,-0.47141325,315.28
711,BTZ-Neutral-wb97xd-1711,COc1c(OC)c(N(C(C)=O)C(F)(F)C(F)(F)F)c2nsnc2c1SC,1.97926952,-8.2209573,-0.58422591,360.82
712,BTZ-Neutral-wb97xd-1712,COc1c(OC)c(N(C(C)=O)C(F)(F)C(F)(F)F)c2nsnc2c1SC(F)(F)F,2.1280538,-8.92488,-0.62074173,319.55
713,BTZ-Neutral-wb97xd-1713,COc1c(OC)c(N(C(C)=O)C(F)(F)C(F)(F)F)c2nsnc2c1Br,1.98811277,-8.6242095,-0.48686853,328.94
714,BTZ-Neutral-wb97xd-1714,COc1c(OC)c(N(C(C)=O)C(F)(F)C(F)(F)F)c2nsnc2c1N(C)C,1.68972791,-7.5564891,-0.56604963,408.04
715,BTZ-Neutral-wb97xd-1715,COc1c(OC)c([N+](=O)[O-])c2nsnc2c1N(C(C)=O)C(F)(F)C(F)(F)F,2.33177507,-8.9550831,-0.59785812,337.73
716,BTZ-Neutral-wb97xd-1716,COc1c(OC)c(S(=O)(=O)N(C)C)c2nsnc2c1N(C(C)=O)C(F)(F)C(F)(F)F,2.15501891,-8.8563108,-0.87719598,320.53
717,BTZ-Neutral-wb97xd-1717,COc1c(OC(F)(F)F)c(C)c2nsnc2c1N(C(C)=O)C(F)(F)C(F)(F)F,2.05099508,-8.903112,-0.54384627,314.93
718,BTZ-Neutral-wb97xd-1718,COc1c(OC(F)(F)F)c(C(F)(F)F)c2nsnc2c1N(C(C)=O)C(F)(F)C(F)(F)F,2.4562064,-9.3773823,-0.47957625,305.48
719,BTZ-Neutral-wb97xd-1719,COc1c(OC(F)(F)F)c(C#N)c2nsnc2c1N(C(C)=O)C(F)(F)C(F)(F)F,2.56466546,-9.1790214,-0.58787205,327.81
720,BTZ-Neutral-wb97xd-1720,COc1c(OC(F)(F)F)c(OC)c2nsnc2c1N(C(C)=O)C(F)(F)C(F)(F)F,2.07436847,-8.4712893,-0.57628059,346.75
721,BTZ-Neutral-wb97xd-1721,COc1c(OC(F)(F)F)c(OC(F)(F)F)c2nsnc2c1N(C(C)=O)C(F)(F)C(F)(F)F,2.31351716,-9.2587467,-0.43829868,307.59
722,BTZ-Neutral-wb97xd-1722,COc1c(OC(F)(F)F)c(SC)c2nsnc2c1N(C(C)=O)C(F)(F)C(F)(F)F,2.14633892,-8.5088391,-0.5618865,357.86
723,BTZ-Neutral-wb97xd-1723,COc1c(OC(F)(F)F)c(SC(F)(F)F)c2nsnc2c1N(C(C)=O)C(F)(F)C(F)(F)F,2.45982533,-9.1300434,-0.44140062,322.4
724,BTZ-Neutral-wb97xd-1724,COc1c(OC(F)(F)F)c(Br)c2nsnc2c1N(C(C)=O)C(F)(F)C(F)(F)F,2.26236236,-9.0285501,-0.53459487,318.67
725,BTZ-Neutral-wb97xd-1725,COc1c(OC(F)(F)F)c(N(C)C)c2nsnc2c1N(C(C)=O)C(F)(F)C(F)(F)F,1.85339606,-7.6212489,-0.47930415,407.69
726,BTZ-Neutral-wb97xd-1726,COc1c(OC(F)(F)F)c([N+](=O)[O-])c2nsnc2c1N(C(C)=O)C(F)(F)C(F)(F)F,2.73717686,-9.4660869,-0.5784846,326.86
727,BTZ-Neutral-wb97xd-1727,COc1c(OC(F)(F)F)c(S(=O)(=O)N(C)C)c2nsnc2c1N(C(C)=O)C(F)(F)C(F)(F)F,2.38475294,-9.0380736,-0.82389159,319.56
728,BTZ-Neutral-wb97xd-1728,COc1c(SC)c(C)c2nsnc2c1N(C(C)=O)C(F)(F)C(F)(F)F,1.9838408,-8.4565959,-0.59187192,329.73
729,BTZ-Neutral-wb97xd-1729,COc1c(SC)c(C(F)(F)F)c2nsnc2c1N(C(C)=O)C(F)(F)C(F)(F)F,2.32540793,-8.546661,-0.59521875,344.44
730,BTZ-Neutral-wb97xd-1730,COc1c(SC)c(C#N)c2nsnc2c1N(C(C)=O)C(F)(F)C(F)(F)F,2.47489967,-8.726247,-0.69717462,363.43
731,BTZ-Neutral-wb97xd-1731,COc1c(SC)c(OC)c2nsnc2c1N(C(C)=O)C(F)(F)C(F)(F)F,2.02264226,-8.0111682,-0.61524531,369.03
732,BTZ-Neutral-wb97xd-1732,COc1c(SC)c(OC(F)(F)F)c2nsnc2c1N(C(C)=O)C(F)(F)C(F)(F)F,2.12840753,-8.5814898,-0.46765827,330.13
733,BTZ-Neutral-wb97xd-1733,COc1c(SC)c(SC)c2nsnc2c1N(C(C)=O)C(F)(F)C(F)(F)F,2.0483285,-8.1619116,-0.59494665,374.39
734,BTZ-Neutral-wb97xd-1734,COc1c(SC)c(SC(F)(F)F)c2nsnc2c1N(C(C)=O)C(F)(F)C(F)(F)F,2.20554788,-8.3662587,-0.53674446,356.9
735,BTZ-Neutral-wb97xd-1735,COc1c(SC)c(Br)c2nsnc2c1N(C(C)=O)C(F)(F)C(F)(F)F,2.2241051,-8.4408141,-0.58577688,347.98
736,BTZ-Neutral-wb97xd-1736,COc1c(SC)c(N(C)C)c2nsnc2c1N(C(C)=O)C(F)(F)C(F)(F)F,1.74496421,-7.3826172,-0.62207502,424.36
737,BTZ-Neutral-wb97xd-1737,COc1c(SC)c([N+](=O)[O-])c2nsnc2c1N(C(C)=O)C(F)(F)C(F)(F)F,2.4619205,-8.8729089,-0.67701201,335.55
738,BTZ-Neutral-wb97xd-1738,COc1c(SC)c(S(=O)(=O)N(C)C)c2nsnc2c1N(C(C)=O)C(F)(F)C(F)(F)F,2.3002931,-8.3706123,-0.9343914,369.69
739,BTZ-Neutral-wb97xd-1739,COc1c(SC(F)(F)F)c(C)c2nsnc2c1N(C(C)=O)C(F)(F)C(F)(F)F,2.07104885,-8.6492427,-0.49095003,329.87
740,BTZ-Neutral-wb97xd-1740,COc1c(SC(F)(F)F)c(C(F)(F)F)c2nsnc2c1N(C(C)=O)C(F)(F)C(F)(F)F,2.53734662,-9.3504444,-0.56964135,314.69
741,BTZ-Neutral-wb97xd-1741,COc1c(SC(F)(F)F)c(C#N)c2nsnc2c1N(C(C)=O)C(F)(F)C(F)(F)F,2.52526538,-9.0141288,-0.52147965,350.7
742,BTZ-Neutral-wb97xd-1742,COc1c(SC(F)(F)F)c(OC)c2nsnc2c1N(C(C)=O)C(F)(F)C(F)(F)F,2.13417605,-8.3559189,-0.51878586,349.38
743,BTZ-Neutral-wb97xd-1743,COc1c(SC(F)(F)F)c(OC(F)(F)F)c2nsnc2c1N(C(C)=O)C(F)(F)C(F)(F)F,2.49296711,-9.2554815,-0.50645973,315.3
744,BTZ-Neutral-wb97xd-1744,COc1c(SC(F)(F)F)c(SC)c2nsnc2c1N(C(C)=O)C(F)(F)C(F)(F)F,2.28293312,-8.3123829,-0.57497451,383.21
745,BTZ-Neutral-wb97xd-1745,COc1c(SC(F)(F)F)c(SC(F)(F)F)c2nsnc2c1N(C(C)=O)C(F)(F)C(F)(F)F,2.54999927,-9.1341249,-0.46205301,336.05
746,BTZ-Neutral-wb97xd-1746,COc1c(SC(F)(F)F)c(Br)c2nsnc2c1N(C(C)=O)C(F)(F)C(F)(F)F,2.28053864,-8.7967209,-0.58789926,338.44
747,BTZ-Neutral-wb97xd-1747,COc1c(SC(F)(F)F)c(N(C)C)c2nsnc2c1N(C(C)=O)C(F)(F)C(F)(F)F,2.08212332,-7.771176,-0.68054931,405.45
748,BTZ-Neutral-wb97xd-1748,COc1c(SC(F)(F)F)c([N+](=O)[O-])c2nsnc2c1N(C(C)=O)C(F)(F)C(F)(F)F,2.71274228,-9.1384785,-0.56643057,335.42
749,BTZ-Neutral-wb97xd-1749,COc1c(SC(F)(F)F)c(S(=O)(=O)N(C)C)c2nsnc2c1N(C(C)=O)C(F)(F)C(F)(F)F,2.50529324,-9.0152172,-0.86005368,328.77
750,BTZ-Neutral-wb97xd-1750,COc1c(N(C)C)c(C)c2nsnc2c1N(C(C)=O)C(F)(F)C(F)(F)F,1.8494234,-7.7866857,-0.53532954,357.33
751,BTZ-Neutral-wb97xd-1751,COc1c(N(C)C)c(C(F)(F)F)c2nsnc2c1N(C(C)=O)C(F)(F)C(F)(F)F,2.1642431,-8.2987779,-0.65189718,380.05
752,BTZ-Neutral-wb97xd-1752,COc1c(N(C)C)c(C#N)c2nsnc2c1N(C(C)=O)C(F)(F)C(F)(F)F,2.10772793,-8.0089914,-0.68367846,388.36
753,BTZ-Neutral-wb97xd-1753,COc1c(N(C)C)c(OC)c2nsnc2c1N(C(C)=O)C(F)(F)C(F)(F)F,1.77900392,-7.6465542,-0.51421458,382.4
754,BTZ-Neutral-wb97xd-1754,COc1c(N(C)C)c(OC(F)(F)F)c2nsnc2c1N(C(C)=O)C(F)(F)C(F)(F)F,1.9169042,-7.6816551,-0.50096331,390.39
755,BTZ-Neutral-wb97xd-1755,COc1c(N(C)C)c(SC)c2nsnc2c1N(C(C)=O)C(F)(F)C(F)(F)F,1.90368014,-7.7624688,-0.63674121,388.78
756,BTZ-Neutral-wb97xd-1756,COc1c(N(C)C)c(SC(F)(F)F)c2nsnc2c1N(C(C)=O)C(F)(F)C(F)(F)F,1.99589483,-7.8397452,-0.64577493,391.91
757,BTZ-Neutral-wb97xd-1757,COc1c(N(C)C)c(Br)c2nsnc2c1N(C(C)=O)C(F)(F)C(F)(F)F,1.88776229,-7.8275007,-0.59992608,385.83
758,BTZ-Neutral-wb97xd-1758,COc1c(N(C)C)c(N(C)C)c2nsnc2c1N(C(C)=O)C(F)(F)C(F)(F)F,1.80411875,-7.1913309,-0.64675449,440.02
759,BTZ-Neutral-wb97xd-1759,COc1c(N(C)C)c([N+](=O)[O-])c2nsnc2c1N(C(C)=O)C(F)(F)C(F)(F)F,2.27558642,-8.0941587,-0.68465802,409.99
760,BTZ-Neutral-wb97xd-1760,COc1c(N(C)C)c(S(=O)(=O)N(C)C)c2nsnc2c1N(C(C)=O)C(F)(F)C(F)(F)F,2.07167468,-7.9069539,-0.94054086,376.13
761,BTZ-Neutral-wb97xd-1761,CC(=O)N(c1c(OC(F)(F)F)c(C)c(C)c2nsnc12)C(F)(F)C(F)(F)F,2.05926692,-8.7771297,-0.53361531,327.02
762,BTZ-Neutral-wb97xd-1762,CC(=O)N(c1c(OC(F)(F)F)c(C)c(C(F)(F)F)c2nsnc12)C(F)(F)C(F)(F)F,2.41903754,-9.4013271,-0.46784874,302.4
763,BTZ-Neutral-wb97xd-1763,CC(=O)N(c1c(OC(F)(F)F)c(C)c(C#N)c2nsnc12)C(F)(F)C(F)(F)F,2.53492493,-9.3771102,-0.64223763,312.9
764,BTZ-Neutral-wb97xd-1764,COc1c(C)c(OC(F)(F)F)c(N(C(C)=O)C(F)(F)C(F)(F)F)c2nsnc12,1.97137862,-8.2274877,-0.39908907,362.44
765,BTZ-Neutral-wb97xd-1765,CC(=O)N(c1c(OC(F)(F)F)c(C)c(OC(F)(F)F)c2nsnc12)C(F)(F)C(F)(F)F,2.16930416,-9.2201085,-0.43321041,308.04
766,BTZ-Neutral-wb97xd-1766,CSc1c(C)c(OC(F)(F)F)c(N(C(C)=O)C(F)(F)C(F)(F)F)c2nsnc12,2.0875109,-8.3850336,-0.45538656,358.59
767,BTZ-Neutral-wb97xd-1767,CC(=O)N(c1c(OC(F)(F)F)c(C)c(SC(F)(F)F)c2nsnc12)C(F)(F)C(F)(F)F,2.40679304,-9.3088131,-0.50839164,309.65
768,BTZ-Neutral-wb97xd-1768,CC(=O)N(c1c(OC(F)(F)F)c(C)c(Br)c2nsnc12)C(F)(F)C(F)(F)F,2.18299079,-8.9352198,-0.3888309,320.24
769,BTZ-Neutral-wb97xd-1769,CC(=O)N(c1c(OC(F)(F)F)c(C)c(N(C)C)c2nsnc12)C(F)(F)C(F)(F)F,1.9454747,-7.5178509,-0.49552131,429.69
770,BTZ-Neutral-wb97xd-1770,CC(=O)N(c1c(OC(F)(F)F)c(C)c([N+](=O)[O-])c2nsnc12)C(F)(F)C(F)(F)F,2.64874436,-9.4432305,-0.61500042,329.19
771,BTZ-Neutral-wb97xd-1771,CC(=O)N(c1c(OC(F)(F)F)c(C)c(S(=O)(=O)N(C)C)c2nsnc12)C(F)(F)C(F)(F)F,2.34910784,-9.0563043,-0.65788338,305.59
772,BTZ-Neutral-wb97xd-1772,CC(=O)N(c1c(OC(F)(F)F)c(C(F)(F)F)c(C)c2nsnc12)C(F)(F)C(F)(F)F,2.39180033,-9.2707191,-0.48697737,310.42
773,BTZ-Neutral-wb97xd-1773,CC(=O)N(c1c(OC(F)(F)F)c(C(F)(F)F)c(C(F)(F)F)c2nsnc12)C(F)(F)C(F)(F)F,2.79219548,-9.7428126,-0.48675969,303.59
774,BTZ-Neutral-wb97xd-1774,CC(=O)N(c1c(OC(F)(F)F)c(C(F)(F)F)c(C#N)c2nsnc12)C(F)(F)C(F)(F)F,2.94073487,-9.5811852,-0.45500562,329.06
775,BTZ-Neutral-wb97xd-1775,COc1c(C(F)(F)F)c(OC(F)(F)F)c(N(C(C)=O)C(F)(F)C(F)(F)F)c2nsnc12,2.32257809,-8.7123699,-0.53878521,343.2
776,BTZ-Neutral-wb97xd-1776,CC(=O)N(c1c(OC(F)(F)F)c(C(F)(F)F)c(OC(F)(F)F)c2nsnc12)C(F)(F)C(F)(F)F,2.67728765,-9.5564241,-0.38368821,307.16
777,BTZ-Neutral-wb97xd-1777,CSc1c(C(F)(F)F)c(OC(F)(F)F)c(N(C(C)=O)C(F)(F)C(F)(F)F)c2nsnc12,2.51585072,-8.7523686,-0.54893454,377.58
778,BTZ-Neutral-wb97xd-1778,CC(=O)N(c1c(OC(F)(F)F)c(C(F)(F)F)c(SC(F)(F)F)c2nsnc12)C(F)(F)C(F)(F)F,2.70523232,-9.5898924,-0.32948589,315.45
779,BTZ-Neutral-wb97xd-1779,CC(=O)N(c1c(OC(F)(F)F)c(C(F)(F)F)c(Br)c2nsnc12)C(F)(F)C(F)(F)F,2.61685424,-9.3531654,-0.48322239,319.15
780,BTZ-Neutral-wb97xd-1780,CC(=O)N(c1c(OC(F)(F)F)c(C(F)(F)F)c(N(C)C)c2nsnc12)C(F)(F)C(F)(F)F,2.40839843,-8.4916968,-0.54439047,423.86
781,BTZ-Neutral-wb97xd-1781,CC(=O)N(c1c(OC(F)(F)F)c(C(F)(F)F)c([N+](=O)[O-])c2nsnc12)C(F)(F)C(F)(F)F,2.94008183,-9.733017,-0.51769746,308.87
782,BTZ-Neutral-wb97xd-1782,CC(=O)N(c1c(OC(F)(F)F)c(C(F)(F)F)c(S(=O)(=O)N(C)C)c2nsnc12)C(F)(F)C(F)(F)F,2.68958657,-9.3858174,-0.68177376,309.39
783,BTZ-Neutral-wb97xd-1783,CC(=O)N(c1c(OC(F)(F)F)c(C#N)c(C)c2nsnc12)C(F)(F)C(F)(F)F,2.43653357,-9.3126225,-0.61355829,310.01
784,BTZ-Neutral-wb97xd-1784,CC(=O)N(c1c(OC(F)(F)F)c(C#N)c(C(F)(F)F)c2nsnc12)C(F)(F)C(F)(F)F,2.83385399,-9.8470269,-0.44561817,302.1
785,BTZ-Neutral-wb97xd-1785,CC(=O)N(c1c(OC(F)(F)F)c(C#N)c(C#N)c2nsnc12)C(F)(F)C(F)(F)F,3.0325142,-9.7022697,-0.64139412,326.68
786,BTZ-Neutral-wb97xd-1786,COc1c(C#N)c(OC(F)(F)F)c(N(C(C)=O)C(F)(F)C(F)(F)F)c2nsnc12,2.33939387,-8.8037955,-0.5202552,337.47
787,BTZ-Neutral-wb97xd-1787,CC(=O)N(c1c(OC(F)(F)F)c(C#N)c(OC(F)(F)F)c2nsnc12)C(F)(F)C(F)(F)F,2.79167849,-9.5795526,-0.50485434,310.35
788,BTZ-Neutral-wb97xd-1788,CSc1c(C#N)c(OC(F)(F)F)c(N(C(C)=O)C(F)(F)C(F)(F)F)c2nsnc12,2.6099429,-8.5842108,-0.62354436,381.18
789,BTZ-Neutral-wb97xd-1789,CC(=O)N(c1c(OC(F)(F)F)c(C#N)c(SC(F)(F)F)c2nsnc12)C(F)(F)C(F)(F)F,2.84947253,-9.7776414,-0.37198791,309.58
790,BTZ-Neutral-wb97xd-1790,CC(=O)N(c1c(OC(F)(F)F)c(C#N)c(Br)c2nsnc12)C(F)(F)C(F)(F)F,2.7593258,-9.4318023,-0.54131574,320.23
791,BTZ-Neutral-wb97xd-1791,CC(=O)N(c1c(OC(F)(F)F)c(C#N)c(N(C)C)c2nsnc12)C(F)(F)C(F)(F)F,2.11896566,-7.9385175,-0.5975316,392.35
792,BTZ-Neutral-wb97xd-1792,CC(=O)N(c1c(OC(F)(F)F)c(C#N)c([N+](=O)[O-])c2nsnc12)C(F)(F)C(F)(F)F,3.23661641,-9.9444387,-0.51494925,329.35
793,BTZ-Neutral-wb97xd-1793,CC(=O)N(c1c(OC(F)(F)F)c(C#N)c(S(=O)(=O)N(C)C)c2nsnc12)C(F)(F)C(F)(F)F,2.86149935,-9.4851339,-0.68248122,303.58
794,BTZ-Neutral-wb97xd-1794,COc1c(OC(F)(F)F)c(N(C(C)=O)C(F)(F)C(F)(F)F)c2nsnc2c1C,2.05883156,-8.8361754,-0.58384497,322.79
795,BTZ-Neutral-wb97xd-1795,COc1c(OC(F)(F)F)c(N(C(C)=O)C(F)(F)C(F)(F)F)c2nsnc2c1C(F)(F)F,2.44243814,-9.4024155,-0.47473287,306.47
796,BTZ-Neutral-wb97xd-1796,COc1c(OC(F)(F)F)c(N(C(C)=O)C(F)(F)C(F)(F)F)c2nsnc2c1C#N,2.50687142,-9.4007829,-0.503385,310.31
797,BTZ-Neutral-wb97xd-1797,COc1c(OC(F)(F)F)c(N(C(C)=O)C(F)(F)C(F)(F)F)c2nsnc2c1OC,2.06005601,-8.2598676,-0.44376789,361.59
798,BTZ-Neutral-wb97xd-1798,COc1c(OC(F)(F)F)c(N(C(C)=O)C(F)(F)C(F)(F)F)c2nsnc2c1OC(F)(F)F,2.33732591,-9.2367066,-0.49859604,310.72
799,BTZ-Neutral-wb97xd-1799,COc1c(OC(F)(F)F)c(N(C(C)=O)C(F)(F)C(F)(F)F)c2nsnc2c1SC,2.13798545,-8.3594562,-0.511548,367.38
800,BTZ-Neutral-wb97xd-1800,COc1c(OC(F)(F)F)c(N(C(C)=O)C(F)(F)C(F)(F)F)c2nsnc2c1SC(F)(F)F,2.30271479,-9.128955,-0.36915807,315.31
801,BTZ-Neutral-wb97xd-1801,COc1c(OC(F)(F)F)c(N(C(C)=O)C(F)(F)C(F)(F)F)c2nsnc2c1Br,2.29659254,-8.9722254,-0.48082791,321.45
802,BTZ-Neutral-wb97xd-1802,COc1c(OC(F)(F)F)c(N(C(C)=O)C(F)(F)C(F)(F)F)c2nsnc2c1N(C)C,1.96305236,-7.5091437,-0.6209322,432.89
803,BTZ-Neutral-wb97xd-1803,COc1c(OC(F)(F)F)c(N(C(C)=O)C(F)(F)C(F)(F)F)c2nsnc2c1[N+](=O)[O-],2.66232215,-9.4943853,-0.55233579,330.44
804,BTZ-Neutral-wb97xd-1804,COc1c(OC(F)(F)F)c(N(C(C)=O)C(F)(F)C(F)(F)F)c2nsnc2c1S(=O)(=O)N(C)C,2.33765243,-9.0813375,-0.69399105,303.55
805,BTZ-Neutral-wb97xd-1805,CC(=O)N(c1c(OC(F)(F)F)c(OC(F)(F)F)c(C)c2nsnc12)C(F)(F)C(F)(F)F,2.25297491,-9.2037825,-0.40444944,306.88
806,BTZ-Neutral-wb97xd-1806,CC(=O)N(c1c(OC(F)(F)F)c(OC(F)(F)F)c(C(F)(F)F)c2nsnc12)C(F)(F)C(F)(F)F,2.58085541,-9.7838997,-0.35484561,293.76
807,BTZ-Neutral-wb97xd-1807,CC(=O)N(c1c(OC(F)(F)F)c(OC(F)(F)F)c(C#N)c2nsnc12)C(F)(F)C(F)(F)F,2.81535119,-9.640503,-0.45661101,313.06
808,BTZ-Neutral-wb97xd-1808,COc1c(OC(F)(F)F)c(OC(F)(F)F)c(N(C(C)=O)C(F)(F)C(F)(F)F)c2nsnc12,2.26777715,-8.6204001,-0.49935792,347.28
809,BTZ-Neutral-wb97xd-1809,CC(=O)N(c1c(OC(F)(F)F)c(OC(F)(F)F)c(OC(F)(F)F)c2nsnc12)C(F)(F)C(F)(F)F,2.40442577,-9.4015992,-0.31000353,307.12
810,BTZ-Neutral-wb97xd-1810,CSc1c(OC(F)(F)F)c(OC(F)(F)F)c(N(C(C)=O)C(F)(F)C(F)(F)F)c2nsnc12,2.32894523,-8.6514195,-0.38727993,359.44
811,BTZ-Neutral-wb97xd-1811,CC(=O)N(c1c(OC(F)(F)F)c(OC(F)(F)F)c(SC(F)(F)F)c2nsnc12)C(F)(F)C(F)(F)F,2.54085671,-9.6067626,-0.31446597,300.58