Entry Number,File Name,SMILES,Ered,HOMO,Gsol,Absorption Wavelength
499,BTZ-Neutral-wb97xd-1454,CC(=O)N(c1c(C)c(OC(F)(F)F)c(C(F)(F)F)c2nsnc12)C(F)(F)C(F)(F)F,2.34652289,-9.3528933,-0.43680213,303.15
500,BTZ-Neutral-wb97xd-1455,CC(=O)N(c1c(C)c(OC(F)(F)F)c(C#N)c2nsnc12)C(F)(F)C(F)(F)F,2.47791998,-9.3371115,-0.48414753,317.04
501,BTZ-Neutral-wb97xd-1456,COc1c(OC(F)(F)F)c(C)c(N(C(C)=O)C(F)(F)C(F)(F)F)c2nsnc12,1.92218294,-8.318097,-0.4552233,350.92
502,BTZ-Neutral-wb97xd-1457,CC(=O)N(c1c(C)c(OC(F)(F)F)c(OC(F)(F)F)c2nsnc12)C(F)(F)C(F)(F)F,2.25517892,-9.30582,-0.40104819,301.64
503,BTZ-Neutral-wb97xd-1458,CSc1c(OC(F)(F)F)c(C)c(N(C(C)=O)C(F)(F)C(F)(F)F)c2nsnc12,2.07638201,-8.4819012,-0.47067858,350.53
504,BTZ-Neutral-wb97xd-1459,CC(=O)N(c1c(C)c(OC(F)(F)F)c(SC(F)(F)F)c2nsnc12)C(F)(F)C(F)(F)F,2.35357028,-9.2930313,-0.3450228,306.64
505,BTZ-Neutral-wb97xd-1460,CC(=O)N(c1c(C)c(OC(F)(F)F)c(Br)c2nsnc12)C(F)(F)C(F)(F)F,2.261927,-8.9839257,-0.48920859,320.67
506,BTZ-Neutral-wb97xd-1461,CC(=O)N(c1c(C)c(OC(F)(F)F)c(N(C)C)c2nsnc12)C(F)(F)C(F)(F)F,1.87924556,-7.6041066,-0.59312358,414.89
507,BTZ-Neutral-wb97xd-1462,CC(=O)N(c1c(C)c(OC(F)(F)F)c([N+](=O)[O-])c2nsnc12)C(F)(F)C(F)(F)F,2.79755585,-9.4307139,-0.59600784,327.26
508,BTZ-Neutral-wb97xd-1463,CC(=O)N(c1c(C)c(OC(F)(F)F)c(S(=O)(=O)N(C)C)c2nsnc12)C(F)(F)C(F)(F)F,2.35465868,-9.0497739,-0.86424402,315.23
509,BTZ-Neutral-wb97xd-1464,CSc1c(C)c(N(C(C)=O)C(F)(F)C(F)(F)F)c2nsnc2c1C,1.89529946,-8.5023087,-0.585015,322.61
510,BTZ-Neutral-wb97xd-1465,CSc1c(C)c(N(C(C)=O)C(F)(F)C(F)(F)F)c2nsnc2c1C(F)(F)F,2.22070385,-8.7112815,-0.51097659,339.21
511,BTZ-Neutral-wb97xd-1466,CSc1c(C)c(N(C(C)=O)C(F)(F)C(F)(F)F)c2nsnc2c1C#N,2.34989693,-8.8250193,-0.63804729,355.3
512,BTZ-Neutral-wb97xd-1467,COc1c(SC)c(C)c(N(C(C)=O)C(F)(F)C(F)(F)F)c2nsnc12,1.93113503,-8.0147055,-0.5099154,364
513,BTZ-Neutral-wb97xd-1468,CSc1c(C)c(N(C(C)=O)C(F)(F)C(F)(F)F)c2nsnc2c1OC(F)(F)F,2.25436262,-8.7376752,-0.54278508,322.78
514,BTZ-Neutral-wb97xd-1469,CSc1c(C)c(N(C(C)=O)C(F)(F)C(F)(F)F)c2nsnc2c1SC,2.11357808,-8.0631393,-0.59584458,382.12
515,BTZ-Neutral-wb97xd-1470,CSc1c(C)c(N(C(C)=O)C(F)(F)C(F)(F)F)c2nsnc2c1SC(F)(F)F,2.20775189,-8.527614,-0.49598388,356.05
516,BTZ-Neutral-wb97xd-1471,CSc1c(C)c(N(C(C)=O)C(F)(F)C(F)(F)F)c2nsnc2c1Br,2.11945544,-8.5776804,-0.6002526,332.67
517,BTZ-Neutral-wb97xd-1472,CSc1c(C)c(N(C(C)=O)C(F)(F)C(F)(F)F)c2nsnc2c1N(C)C,1.89742184,-7.3856103,-0.62748981,430.9
518,BTZ-Neutral-wb97xd-1473,CSc1c(C)c(N(C(C)=O)C(F)(F)C(F)(F)F)c2nsnc2c1[N+](=O)[O-],2.40165035,-8.9610693,-0.56520612,323.57
519,BTZ-Neutral-wb97xd-1474,CSc1c(C)c(N(C(C)=O)C(F)(F)C(F)(F)F)c2nsnc2c1S(=O)(=O)N(C)C,2.27354567,-8.3975502,-0.76345818,370.53
520,BTZ-Neutral-wb97xd-1475,CC(=O)N(c1c(C)c(SC(F)(F)F)c(C)c2nsnc12)C(F)(F)C(F)(F)F,2.10179615,-8.905833,-0.51818724,316.18
521,BTZ-Neutral-wb97xd-1476,CC(=O)N(c1c(C)c(SC(F)(F)F)c(C(F)(F)F)c2nsnc12)C(F)(F)C(F)(F)F,2.54295188,-9.3553422,-0.53772402,311.04
522,BTZ-Neutral-wb97xd-1477,CC(=O)N(c1c(C)c(SC(F)(F)F)c(C#N)c2nsnc12)C(F)(F)C(F)(F)F,2.66104328,-9.4143879,-0.50330337,324.41
523,BTZ-Neutral-wb97xd-1478,COc1c(SC(F)(F)F)c(C)c(N(C(C)=O)C(F)(F)C(F)(F)F)c2nsnc12,1.99377245,-8.4655752,-0.48308634,346.73
524,BTZ-Neutral-wb97xd-1479,CC(=O)N(c1c(C)c(SC(F)(F)F)c(OC(F)(F)F)c2nsnc12)C(F)(F)C(F)(F)F,2.310905,-9.1485462,-0.43919661,315.95
525,BTZ-Neutral-wb97xd-1480,CSc1c(SC(F)(F)F)c(C)c(N(C(C)=O)C(F)(F)C(F)(F)F)c2nsnc12,2.183018,-8.3393208,-0.4794402,382.55
526,BTZ-Neutral-wb97xd-1481,CC(=O)N(c1c(C)c(SC(F)(F)F)c(SC(F)(F)F)c2nsnc12)C(F)(F)C(F)(F)F,2.41092896,-9.1387506,-0.43677492,331.99
527,BTZ-Neutral-wb97xd-1482,CC(=O)N(c1c(C)c(SC(F)(F)F)c(Br)c2nsnc12)C(F)(F)C(F)(F)F,2.34772013,-9.0497739,-0.56700198,323.29
528,BTZ-Neutral-wb97xd-1483,CC(=O)N(c1c(C)c(SC(F)(F)F)c(N(C)C)c2nsnc12)C(F)(F)C(F)(F)F,2.07121211,-7.72764,-0.61769421,409.45
529,BTZ-Neutral-wb97xd-1484,CC(=O)N(c1c(C)c(SC(F)(F)F)c([N+](=O)[O-])c2nsnc12)C(F)(F)C(F)(F)F,2.69584487,-9.3885384,-0.61597998,323.09
530,BTZ-Neutral-wb97xd-1485,CC(=O)N(c1c(C)c(SC(F)(F)F)c(S(=O)(=O)N(C)C)c2nsnc12)C(F)(F)C(F)(F)F,2.5125311,-9.0220197,-0.87112815,326.47
531,BTZ-Neutral-wb97xd-1486,CC(=O)N(c1c(C)c(N(C)C)c(C)c2nsnc12)C(F)(F)C(F)(F)F,1.78313984,-7.8016512,-0.60482388,367.66
532,BTZ-Neutral-wb97xd-1487,CC(=O)N(c1c(C)c(N(C)C)c(C(F)(F)F)c2nsnc12)C(F)(F)C(F)(F)F,2.07602828,-8.0854515,-0.56041716,392.06
533,BTZ-Neutral-wb97xd-1488,CC(=O)N(c1c(C)c(N(C)C)c(C#N)c2nsnc12)C(F)(F)C(F)(F)F,2.21245922,-7.923552,-0.69975957,392.02
534,BTZ-Neutral-wb97xd-1489,COc1c(N(C)C)c(C)c(N(C(C)=O)C(F)(F)C(F)(F)F)c2nsnc12,1.85769524,-7.768455,-0.6048783,376.71
535,BTZ-Neutral-wb97xd-1490,CC(=O)N(c1c(C)c(N(C)C)c(OC(F)(F)F)c2nsnc12)C(F)(F)C(F)(F)F,1.98604481,-7.8634179,-0.59655204,379.02
536,BTZ-Neutral-wb97xd-1491,CSc1c(N(C)C)c(C)c(N(C(C)=O)C(F)(F)C(F)(F)F)c2nsnc12,1.9079249,-7.7455986,-0.63674121,389.79
537,BTZ-Neutral-wb97xd-1492,CC(=O)N(c1c(C)c(N(C)C)c(SC(F)(F)F)c2nsnc12)C(F)(F)C(F)(F)F,2.07379706,-7.8511734,-0.631272,393.14
538,BTZ-Neutral-wb97xd-1493,CC(=O)N(c1c(C)c(N(C)C)c(Br)c2nsnc12)C(F)(F)C(F)(F)F,1.9563587,-7.9537551,-0.53149293,376.3
539,BTZ-Neutral-wb97xd-1539,COc1c(C(F)(F)F)c(N(C(C)=O)C(F)(F)C(F)(F)F)c2nsnc2c1[N+](=O)[O-],2.66615876,-9.1986126,-0.53010522,346.55
540,BTZ-Neutral-wb97xd-1540,COc1c(C(F)(F)F)c(N(C(C)=O)C(F)(F)C(F)(F)F)c2nsnc2c1S(=O)(=O)N(C)C,2.48292662,-8.9801163,-0.67396449,327.9
541,BTZ-Neutral-wb97xd-1541,CC(=O)N(c1c(C(F)(F)F)c(OC(F)(F)F)c(C)c2nsnc12)C(F)(F)C(F)(F)F,2.38434479,-9.2522163,-0.4995756,316.1
542,BTZ-Neutral-wb97xd-1542,CC(=O)N(c1c(C(F)(F)F)c(OC(F)(F)F)c(C(F)(F)F)c2nsnc12)C(F)(F)C(F)(F)F,2.72727242,-9.828252,-0.37571568,293.92
543,BTZ-Neutral-wb97xd-1543,CC(=O)N(c1c(C(F)(F)F)c(OC(F)(F)F)c(C#N)c2nsnc12)C(F)(F)C(F)(F)F,2.95591805,-9.7634922,-0.51796956,309.74
544,BTZ-Neutral-wb97xd-1544,COc1c(OC(F)(F)F)c(C(F)(F)F)c(N(C(C)=O)C(F)(F)C(F)(F)F)c2nsnc12,2.31403415,-8.6225769,-0.5403906,353.34
545,BTZ-Neutral-wb97xd-1545,CC(=O)N(c1c(C(F)(F)F)c(OC(F)(F)F)c(OC(F)(F)F)c2nsnc12)C(F)(F)C(F)(F)F,2.58172613,-9.6154698,-0.35275044,301.78
546,BTZ-Neutral-wb97xd-1546,CSc1c(OC(F)(F)F)c(C(F)(F)F)c(N(C(C)=O)C(F)(F)C(F)(F)F)c2nsnc12,2.45544452,-8.6059788,-0.42795888,360.99
547,BTZ-Neutral-wb97xd-1547,CC(=O)N(c1c(C(F)(F)F)c(OC(F)(F)F)c(SC(F)(F)F)c2nsnc12)C(F)(F)C(F)(F)F,2.81140574,-9.7370985,-0.42782283,301.3
548,BTZ-Neutral-wb97xd-1548,CC(=O)N(c1c(C(F)(F)F)c(OC(F)(F)F)c(Br)c2nsnc12)C(F)(F)C(F)(F)F,2.58074657,-9.3406488,-0.46112787,315.85
549,BTZ-Neutral-wb97xd-1549,CC(=O)N(c1c(C(F)(F)F)c(OC(F)(F)F)c(N(C)C)c2nsnc12)C(F)(F)C(F)(F)F,2.33275463,-7.8054606,-0.52667676,421.87
550,BTZ-Neutral-wb97xd-1550,CC(=O)N(c1c(C(F)(F)F)c(OC(F)(F)F)c([N+](=O)[O-])c2nsnc12)C(F)(F)C(F)(F)F,3.01186181,-9.8562783,-0.533316,321.22
551,BTZ-Neutral-wb97xd-1551,CC(=O)N(c1c(C(F)(F)F)c(OC(F)(F)F)c(S(=O)(=O)N(C)C)c2nsnc12)C(F)(F)C(F)(F)F,2.81306555,-9.1972521,-0.7583427,313.34
552,BTZ-Neutral-wb97xd-1552,CSc1c(C(F)(F)F)c(N(C(C)=O)C(F)(F)C(F)(F)F)c2nsnc2c1C,2.19213335,-8.5589055,-0.45288324,333.7
553,BTZ-Neutral-wb97xd-1553,CSc1c(C(F)(F)F)c(N(C(C)=O)C(F)(F)C(F)(F)F)c2nsnc2c1C(F)(F)F,2.62401047,-8.8778067,-0.5420232,348.49
554,BTZ-Neutral-wb97xd-1554,CSc1c(C(F)(F)F)c(N(C(C)=O)C(F)(F)C(F)(F)F)c2nsnc2c1C#N,2.83284722,-8.9790279,-0.62397972,376.56
555,BTZ-Neutral-wb97xd-1555,COc1c(SC)c(C(F)(F)F)c(N(C(C)=O)C(F)(F)C(F)(F)F)c2nsnc12,2.28494666,-8.2492557,-0.57472962,368.59
556,BTZ-Neutral-wb97xd-1556,CSc1c(C(F)(F)F)c(N(C(C)=O)C(F)(F)C(F)(F)F)c2nsnc2c1OC(F)(F)F,2.57361755,-8.8021629,-0.49320846,344.49
557,BTZ-Neutral-wb97xd-1557,CSc1c(C(F)(F)F)c(N(C(C)=O)C(F)(F)C(F)(F)F)c2nsnc2c1SC,2.38649438,-8.2285761,-0.57173652,383.99
558,BTZ-Neutral-wb97xd-1558,CSc1c(C(F)(F)F)c(N(C(C)=O)C(F)(F)C(F)(F)F)c2nsnc2c1SC(F)(F)F,2.51786426,-8.6816226,-0.45432537,368.03
559,BTZ-Neutral-wb97xd-1559,CSc1c(C(F)(F)F)c(N(C(C)=O)C(F)(F)C(F)(F)F)c2nsnc2c1Br,2.400698,-8.6933229,-0.46265163,341.31
560,BTZ-Neutral-wb97xd-1560,CSc1c(C(F)(F)F)c(N(C(C)=O)C(F)(F)C(F)(F)F)c2nsnc2c1N(C)C,2.2268261,-7.5456051,-0.53810496,440.41
561,BTZ-Neutral-wb97xd-1561,CSc1c(C(F)(F)F)c(N(C(C)=O)C(F)(F)C(F)(F)F)c2nsnc2c1[N+](=O)[O-],2.62986062,-9.1188873,-0.58463406,327.48
562,BTZ-Neutral-wb97xd-1562,CSc1c(C(F)(F)F)c(N(C(C)=O)C(F)(F)C(F)(F)F)c2nsnc2c1S(=O)(=O)N(C)C,2.5664069,-8.5262535,-0.83115666,381.93
563,BTZ-Neutral-wb97xd-1563,CC(=O)N(c1c(C(F)(F)F)c(SC(F)(F)F)c(C)c2nsnc12)C(F)(F)C(F)(F)F,2.40758213,-9.3814638,-0.4008033,303.41
564,BTZ-Neutral-wb97xd-1564,CC(=O)N(c1c(C(F)(F)F)c(SC(F)(F)F)c(C(F)(F)F)c2nsnc12)C(F)(F)C(F)(F)F,2.75929859,-9.8459385,-0.39364707,296.11
565,BTZ-Neutral-wb97xd-1565,CC(=O)N(c1c(C(F)(F)F)c(SC(F)(F)F)c(C#N)c2nsnc12)C(F)(F)C(F)(F)F,2.91428675,-9.8892024,-0.44178156,307.55
566,BTZ-Neutral-wb97xd-1566,COc1c(SC(F)(F)F)c(C(F)(F)F)c(N(C(C)=O)C(F)(F)C(F)(F)F)c2nsnc12,2.31294575,-8.7349542,-0.43838031,344.19
567,BTZ-Neutral-wb97xd-1567,CC(=O)N(c1c(C(F)(F)F)c(SC(F)(F)F)c(OC(F)(F)F)c2nsnc12)C(F)(F)C(F)(F)F,2.65867601,-9.6777807,-0.47641989,299.8
568,BTZ-Neutral-wb97xd-1568,CSc1c(SC(F)(F)F)c(C(F)(F)F)c(N(C(C)=O)C(F)(F)C(F)(F)F)c2nsnc12,2.47299497,-8.5556403,-0.4369926,377.19
569,BTZ-Neutral-wb97xd-1569,CC(=O)N(c1c(C(F)(F)F)c(SC(F)(F)F)c(SC(F)(F)F)c2nsnc12)C(F)(F)C(F)(F)F,2.69579045,-9.3828243,-0.51233709,334.34
570,BTZ-Neutral-wb97xd-1570,CC(=O)N(c1c(C(F)(F)F)c(SC(F)(F)F)c(Br)c2nsnc12)C(F)(F)C(F)(F)F,2.57530457,-9.354798,-0.40268079,315.67
571,BTZ-Neutral-wb97xd-1571,CC(=O)N(c1c(C(F)(F)F)c(SC(F)(F)F)c(N(C)C)c2nsnc12)C(F)(F)C(F)(F)F,2.2611107,-7.9121238,-0.55413165,409.99
572,BTZ-Neutral-wb97xd-1572,CC(=O)N(c1c(C(F)(F)F)c(SC(F)(F)F)c([N+](=O)[O-])c2nsnc12)C(F)(F)C(F)(F)F,2.90645027,-9.8913792,-0.4451556,312.96
573,BTZ-Neutral-wb97xd-1573,CC(=O)N(c1c(C(F)(F)F)c(SC(F)(F)F)c(S(=O)(=O)N(C)C)c2nsnc12)C(F)(F)C(F)(F)F,2.59274618,-9.3958851,-0.68781438,301.95
574,BTZ-Neutral-wb97xd-1574,CC(=O)N(c1c(C(F)(F)F)c(N(C)C)c(C)c2nsnc12)C(F)(F)C(F)(F)F,2.09004143,-8.0362014,-0.48482778,371.45
575,BTZ-Neutral-wb97xd-1575,CC(=O)N(c1c(C(F)(F)F)c(N(C)C)c(C(F)(F)F)c2nsnc12)C(F)(F)C(F)(F)F,2.53010876,-8.1798702,-0.54126132,416.55
576,BTZ-Neutral-wb97xd-1576,CC(=O)N(c1c(C(F)(F)F)c(N(C)C)c(C#N)c2nsnc12)C(F)(F)C(F)(F)F,2.71755845,-8.4767313,-0.62536743,431.41
577,BTZ-Neutral-wb97xd-1577,COc1c(N(C)C)c(C(F)(F)F)c(N(C(C)=O)C(F)(F)C(F)(F)F)c2nsnc12,2.24851247,-8.1991893,-0.57282492,362.3
578,BTZ-Neutral-wb97xd-1578,CC(=O)N(c1c(C(F)(F)F)c(N(C)C)c(OC(F)(F)F)c2nsnc12)C(F)(F)C(F)(F)F,2.42973107,-8.3428581,-0.53192829,379.18
579,BTZ-Neutral-wb97xd-1579,CSc1c(N(C)C)c(C(F)(F)F)c(N(C(C)=O)C(F)(F)C(F)(F)F)c2nsnc12,2.25180488,-8.1170151,-0.50411967,399.71
580,BTZ-Neutral-wb97xd-1580,CC(=O)N(c1c(C(F)(F)F)c(N(C)C)c(SC(F)(F)F)c2nsnc12)C(F)(F)C(F)(F)F,2.37773276,-8.2481673,-0.44123736,412.26
581,BTZ-Neutral-wb97xd-1581,CC(=O)N(c1c(C(F)(F)F)c(N(C)C)c(Br)c2nsnc12)C(F)(F)C(F)(F)F,2.39922866,-8.2345623,-0.55649892,398.92
582,BTZ-Neutral-wb97xd-1582,CC(=O)N(c1c(C(F)(F)F)c(N(C)C)c(N(C)C)c2nsnc12)C(F)(F)C(F)(F)F,2.29343618,-8.0201475,-0.58550478,413.7
583,BTZ-Neutral-wb97xd-1583,CC(=O)N(c1c(C(F)(F)F)c(N(C)C)c([N+](=O)[O-])c2nsnc12)C(F)(F)C(F)(F)F,2.61367067,-8.4274812,-0.53176503,419.48
584,BTZ-Neutral-wb97xd-1584,CC(=O)N(c1c(C(F)(F)F)c(N(C)C)c(S(=O)(=O)N(C)C)c2nsnc12)C(F)(F)C(F)(F)F,2.49288548,-8.0927982,-0.75505029,427.28
585,BTZ-Neutral-wb97xd-1585,CC(=O)N(c1c(C#N)c(C)c(C)c2nsnc12)C(F)(F)C(F)(F)F,2.31999314,-8.8707321,-0.64980201,339.83
586,BTZ-Neutral-wb97xd-1586,CC(=O)N(c1c(C#N)c(C)c(C(F)(F)F)c2nsnc12)C(F)(F)C(F)(F)F,2.48140286,-9.4647264,-0.55309767,310.01
587,BTZ-Neutral-wb97xd-1587,CC(=O)N(c1c(C#N)c(C)c(C#N)c2nsnc12)C(F)(F)C(F)(F)F,2.83766339,-9.4660869,-0.70136496,323.38
588,BTZ-Neutral-wb97xd-1588,COc1c(C)c(C#N)c(N(C(C)=O)C(F)(F)C(F)(F)F)c2nsnc12,2.39435807,-8.3112945,-0.61404807,386.08
589,BTZ-Neutral-wb97xd-1589,CC(=O)N(c1c(C#N)c(C)c(OC(F)(F)F)c2nsnc12)C(F)(F)C(F)(F)F,2.51263994,-9.3256833,-0.5899128,318.84
590,BTZ-Neutral-wb97xd-1590,CSc1c(C)c(C#N)c(N(C(C)=O)C(F)(F)C(F)(F)F)c2nsnc12,2.37912047,-8.4511539,-0.55116576,369.04
591,BTZ-Neutral-wb97xd-1591,CC(=O)N(c1c(C#N)c(C)c(SC(F)(F)F)c2nsnc12)C(F)(F)C(F)(F)F,2.55555011,-9.4233672,-0.62343552,315.79
592,BTZ-Neutral-wb97xd-1592,CC(=O)N(c1c(C#N)c(C)c(Br)c2nsnc12)C(F)(F)C(F)(F)F,2.52406814,-9.0334479,-0.59706903,334.95
593,BTZ-Neutral-wb97xd-1593,CC(=O)N(c1c(C#N)c(C)c(N(C)C)c2nsnc12)C(F)(F)C(F)(F)F,2.27289263,-7.5719988,-0.57230793,453.12
594,BTZ-Neutral-wb97xd-1594,CC(=O)N(c1c(C#N)c(C)c([N+](=O)[O-])c2nsnc12)C(F)(F)C(F)(F)F,2.83480634,-9.5675802,-0.6799779,327.88
595,BTZ-Neutral-wb97xd-1595,CC(=O)N(c1c(C#N)c(C)c(S(=O)(=O)N(C)C)c2nsnc12)C(F)(F)C(F)(F)F,2.71293275,-9.2111292,-0.93300369,317.73
596,BTZ-Neutral-wb97xd-1596,CC(=O)N(c1c(C#N)c(C(F)(F)F)c(C)c2nsnc12)C(F)(F)C(F)(F)F,2.53519703,-9.3681309,-0.4840659,309.02
597,BTZ-Neutral-wb97xd-1597,CC(=O)N(c1c(C#N)c(C(F)(F)F)c(C(F)(F)F)c2nsnc12)C(F)(F)C(F)(F)F,2.92147019,-9.8747811,-0.4633863,300.61
598,BTZ-Neutral-wb97xd-1598,CC(=O)N(c1c(C#N)c(C(F)(F)F)c(C#N)c2nsnc12)C(F)(F)C(F)(F)F,3.1032602,-9.7996815,-0.62934009,315.3
599,BTZ-Neutral-wb97xd-1599,COc1c(C(F)(F)F)c(C#N)c(N(C(C)=O)C(F)(F)C(F)(F)F)c2nsnc12,2.4790628,-8.832366,-0.53620026,343.23
600,BTZ-Neutral-wb97xd-1600,CC(=O)N(c1c(C#N)c(C(F)(F)F)c(OC(F)(F)F)c2nsnc12)C(F)(F)C(F)(F)F,2.8121132,-9.7224051,-0.53285343,302.96
601,BTZ-Neutral-wb97xd-1601,CSc1c(C(F)(F)F)c(C#N)c(N(C(C)=O)C(F)(F)C(F)(F)F)c2nsnc12,2.7481697,-8.7466545,-0.63587049,386.61
602,BTZ-Neutral-wb97xd-1602,CC(=O)N(c1c(C#N)c(C(F)(F)F)c(SC(F)(F)F)c2nsnc12)C(F)(F)C(F)(F)F,2.85330914,-9.8287962,-0.46022994,306.57
603,BTZ-Neutral-wb97xd-1603,CC(=O)N(c1c(C#N)c(C(F)(F)F)c(Br)c2nsnc12)C(F)(F)C(F)(F)F,2.88332177,-9.5196906,-0.5499141,315.65
604,BTZ-Neutral-wb97xd-1604,CC(=O)N(c1c(C#N)c(C(F)(F)F)c(N(C)C)c2nsnc12)C(F)(F)C(F)(F)F,2.47517177,-8.0362014,-0.69643995,411.19
605,BTZ-Neutral-wb97xd-1605,CC(=O)N(c1c(C#N)c(C(F)(F)F)c([N+](=O)[O-])c2nsnc12)C(F)(F)C(F)(F)F,2.99809355,-10.0170894,-0.50107215,307.27
606,BTZ-Neutral-wb97xd-1606,CC(=O)N(c1c(C#N)c(C(F)(F)F)c(S(=O)(=O)N(C)C)c2nsnc12)C(F)(F)C(F)(F)F,2.93012297,-9.254121,-0.87765855,324.73
607,BTZ-Neutral-wb97xd-1607,CC(=O)N(c1c(C#N)c(C#N)c(C)c2nsnc12)C(F)(F)C(F)(F)F,2.62942526,-9.3830964,-0.70463016,315.95
608,BTZ-Neutral-wb97xd-1608,CC(=O)N(c1c(C#N)c(C#N)c(C(F)(F)F)c2nsnc12)C(F)(F)C(F)(F)F,2.96729183,-9.8992701,-0.57704247,306.22
609,BTZ-Neutral-wb97xd-1609,CC(=O)N(c1c(C#N)c(C#N)c(C#N)c2nsnc12)C(F)(F)C(F)(F)F,3.16908119,-9.9281127,-0.61791189,319.02
610,BTZ-Neutral-wb97xd-1610,COc1c(C#N)c(C#N)c(N(C(C)=O)C(F)(F)C(F)(F)F)c2nsnc12,2.51054477,-8.8671948,-0.64278183,346.8
611,BTZ-Neutral-wb97xd-1611,CC(=O)N(c1c(C#N)c(C#N)c(OC(F)(F)F)c2nsnc12)C(F)(F)C(F)(F)F,2.98884215,-9.6723387,-0.62819727,313.4
612,BTZ-Neutral-wb97xd-1612,CSc1c(C#N)c(C#N)c(N(C(C)=O)C(F)(F)C(F)(F)F)c2nsnc12,2.71638842,-8.6405355,-0.6192996,384.73
613,BTZ-Neutral-wb97xd-1613,CC(=O)N(c1c(C#N)c(C#N)c(SC(F)(F)F)c2nsnc12)C(F)(F)C(F)(F)F,2.94506126,-9.8233542,-0.53015964,312.24
614,BTZ-Neutral-wb97xd-1614,CC(=O)N(c1c(C#N)c(C#N)c(Br)c2nsnc12)C(F)(F)C(F)(F)F,2.89940288,-9.5292141,-0.66084927,323.25
615,BTZ-Neutral-wb97xd-1615,CC(=O)N(c1c(C#N)c(C#N)c(N(C)C)c2nsnc12)C(F)(F)C(F)(F)F,2.35136627,-7.9978353,-0.71320131,407.22
616,BTZ-Neutral-wb97xd-1616,CC(=O)N(c1c(C#N)c(C#N)c([N+](=O)[O-])c2nsnc12)C(F)(F)C(F)(F)F,3.37772747,-10.0747746,-0.62071452,327.04
617,BTZ-Neutral-wb97xd-1617,CC(=O)N(c1c(C#N)c(C#N)c(S(=O)(=O)N(C)C)c2nsnc12)C(F)(F)C(F)(F)F,3.00124991,-9.5156091,-0.90486855,309.38
618,BTZ-Neutral-wb97xd-1618,COc1c(C#N)c(N(C(C)=O)C(F)(F)C(F)(F)F)c2nsnc2c1C,2.37479408,-8.9569878,-0.65788338,340.24
619,BTZ-Neutral-wb97xd-1619,COc1c(C#N)c(N(C(C)=O)C(F)(F)C(F)(F)F)c2nsnc2c1C(F)(F)F,2.69785841,-9.5708454,-0.62495928,311.76
620,BTZ-Neutral-wb97xd-1620,COc1c(C#N)c(N(C(C)=O)C(F)(F)C(F)(F)F)c2nsnc2c1C#N,2.88016541,-9.5093508,-0.70843956,327.24
621,BTZ-Neutral-wb97xd-1621,COc1c(C#N)c(N(C(C)=O)C(F)(F)C(F)(F)F)c2nsnc2c1OC,2.4309011,-8.3608167,-0.65532564,386.68
622,BTZ-Neutral-wb97xd-1622,COc1c(C#N)c(N(C(C)=O)C(F)(F)C(F)(F)F)c2nsnc2c1OC(F)(F)F,2.68474319,-9.3648657,-0.56177766,324.89
623,BTZ-Neutral-wb97xd-1623,COc1c(C#N)c(N(C(C)=O)C(F)(F)C(F)(F)F)c2nsnc2c1SC,2.48031446,-8.2876218,-0.63627864,392.79
624,BTZ-Neutral-wb97xd-1624,COc1c(C#N)c(N(C(C)=O)C(F)(F)C(F)(F)F)c2nsnc2c1SC(F)(F)F,2.72770778,-9.4707126,-0.61244268,321.05
625,BTZ-Neutral-wb97xd-1625,COc1c(C#N)c(N(C(C)=O)C(F)(F)C(F)(F)F)c2nsnc2c1Br,2.54912855,-9.0677325,-0.50724882,334.03
626,BTZ-Neutral-wb97xd-1626,COc1c(C#N)c(N(C(C)=O)C(F)(F)C(F)(F)F)c2nsnc2c1N(C)C,2.14005341,-7.5023412,-0.62591163,466.51
627,BTZ-Neutral-wb97xd-1627,COc1c(C#N)c(N(C(C)=O)C(F)(F)C(F)(F)F)c2nsnc2c1[N+](=O)[O-],2.84049323,-9.5871714,-0.66955647,332.58
628,BTZ-Neutral-wb97xd-1628,COc1c(C#N)c(N(C(C)=O)C(F)(F)C(F)(F)F)c2nsnc2c1S(=O)(=O)N(C)C,2.74308143,-9.1314039,-0.8527614,319.43
629,BTZ-Neutral-wb97xd-1629,CC(=O)N(c1c(C#N)c(OC(F)(F)F)c(C)c2nsnc12)C(F)(F)C(F)(F)F,2.45528126,-9.3428256,-0.47274654,316.09
630,BTZ-Neutral-wb97xd-1630,CC(=O)N(c1c(C#N)c(OC(F)(F)F)c(C(F)(F)F)c2nsnc12)C(F)(F)C(F)(F)F,2.7966035,-9.8603598,-0.42352365,299.36
631,BTZ-Neutral-wb97xd-1631,CC(=O)N(c1c(C#N)c(OC(F)(F)F)c(C#N)c2nsnc12)C(F)(F)C(F)(F)F,3.06007793,-9.7468941,-0.57962742,317.6
632,BTZ-Neutral-wb97xd-1632,COc1c(OC(F)(F)F)c(C#N)c(N(C(C)=O)C(F)(F)C(F)(F)F)c2nsnc12,2.5487204,-8.7273354,-0.59538201,360.54
633,BTZ-Neutral-wb97xd-1633,CC(=O)N(c1c(C#N)c(OC(F)(F)F)c(OC(F)(F)F)c2nsnc12)C(F)(F)C(F)(F)F,2.8189157,-9.68676,-0.50782023,308.97
634,BTZ-Neutral-wb97xd-1634,CSc1c(OC(F)(F)F)c(C#N)c(N(C(C)=O)C(F)(F)C(F)(F)F)c2nsnc12,2.63503052,-8.7093768,-0.6024294,375.95
635,BTZ-Neutral-wb97xd-1635,CC(=O)N(c1c(C#N)c(OC(F)(F)F)c(SC(F)(F)F)c2nsnc12)C(F)(F)C(F)(F)F,2.84212583,-9.7134258,-0.52479927,309.51
636,BTZ-Neutral-wb97xd-1636,CC(=O)N(c1c(C#N)c(OC(F)(F)F)c(Br)c2nsnc12)C(F)(F)C(F)(F)F,2.71192598,-9.4247277,-0.41941494,318.77
637,BTZ-Neutral-wb97xd-1637,CC(=O)N(c1c(C#N)c(OC(F)(F)F)c(N(C)C)c2nsnc12)C(F)(F)C(F)(F)F,2.33392466,-7.8489966,-0.5433837,433.89
638,BTZ-Neutral-wb97xd-1638,CC(=O)N(c1c(C#N)c(OC(F)(F)F)c([N+](=O)[O-])c2nsnc12)C(F)(F)C(F)(F)F,3.08116568,-9.8941002,-0.61573509,322.98
639,BTZ-Neutral-wb97xd-1639,CC(=O)N(c1c(C#N)c(OC(F)(F)F)c(S(=O)(=O)N(C)C)c2nsnc12)C(F)(F)C(F)(F)F,2.91200111,-9.1988847,-0.7912668,320.23
640,BTZ-Neutral-wb97xd-1640,CSc1c(C#N)c(N(C(C)=O)C(F)(F)C(F)(F)F)c2nsnc2c1C,2.38780046,-8.7148188,-0.48512709,332.07
641,BTZ-Neutral-wb97xd-1641,CSc1c(C#N)c(N(C(C)=O)C(F)(F)C(F)(F)F)c2nsnc2c1C(F)(F)F,2.77094447,-8.9795721,-0.62204781,351.97
642,BTZ-Neutral-wb97xd-1642,CSc1c(C#N)c(N(C(C)=O)C(F)(F)C(F)(F)F)c2nsnc2c1C#N,2.85896882,-9.0617463,-0.61383039,359.14
643,BTZ-Neutral-wb97xd-1643,COc1c(SC)c(C#N)c(N(C(C)=O)C(F)(F)C(F)(F)F)c2nsnc12,2.42769032,-8.3232669,-0.67497126,377.35
644,BTZ-Neutral-wb97xd-1644,CSc1c(C#N)c(N(C(C)=O)C(F)(F)C(F)(F)F)c2nsnc2c1OC(F)(F)F,2.65149257,-8.9594367,-0.45952248,334.15
645,BTZ-Neutral-wb97xd-1645,CSc1c(C#N)c(N(C(C)=O)C(F)(F)C(F)(F)F)c2nsnc2c1SC,2.43694172,-8.2859892,-0.55366908,390.71
646,BTZ-Neutral-wb97xd-1646,CSc1c(C#N)c(N(C(C)=O)C(F)(F)C(F)(F)F)c2nsnc2c1SC(F)(F)F,2.70697376,-8.8179447,-0.62558511,366.94
647,BTZ-Neutral-wb97xd-1647,CSc1c(C#N)c(N(C(C)=O)C(F)(F)C(F)(F)F)c2nsnc2c1Br,2.54852993,-8.8065165,-0.60887817,341.54
648,BTZ-Neutral-wb97xd-1648,CSc1c(C#N)c(N(C(C)=O)C(F)(F)C(F)(F)F)c2nsnc2c1N(C)C,2.32671401,-7.637847,-0.61486437,450.86
649,BTZ-Neutral-wb97xd-1649,CSc1c(C#N)c(N(C(C)=O)C(F)(F)C(F)(F)F)c2nsnc2c1[N+](=O)[O-],2.80073942,-9.1885449,-0.57679758,333.92
650,BTZ-Neutral-wb97xd-1650,CSc1c(C#N)c(N(C(C)=O)C(F)(F)C(F)(F)F)c2nsnc2c1S(=O)(=O)N(C)C,2.67712439,-8.6293794,-0.88862418,378.36
651,BTZ-Neutral-wb97xd-1651,CC(=O)N(c1c(C#N)c(SC(F)(F)F)c(C)c2nsnc12)C(F)(F)C(F)(F)F,2.41199015,-9.33303,-0.51157521,313.7
652,BTZ-Neutral-wb97xd-1652,CC(=O)N(c1c(C#N)c(SC(F)(F)F)c(C(F)(F)F)c2nsnc12)C(F)(F)C(F)(F)F,2.96342801,-9.8013141,-0.54994131,305.72
653,BTZ-Neutral-wb97xd-1653,CC(=O)N(c1c(C#N)c(SC(F)(F)F)c(C#N)c2nsnc12)C(F)(F)C(F)(F)F,3.13275584,-9.7907022,-0.62757144,319.91
654,BTZ-Neutral-wb97xd-1654,COc1c(SC(F)(F)F)c(C#N)c(N(C(C)=O)C(F)(F)C(F)(F)F)c2nsnc12,2.47587923,-8.7651573,-0.63257808,351.17