Entry Number,File Name,SMILES,Ered,HOMO,Gsol,Absorption Wavelength
1122,BTZ-Neutral-wb97xd-714,CCOCN(C(C)=O)c1c(C)c(C)c([N+](=O)[O-])c2nsnc12,2.16212072,-8.862297,-0.91085475,339.22
1123,BTZ-Neutral-wb97xd-715,CCOCN(C(C)=O)c1c(C)c(C)c(S(=O)(=O)N(C)C)c2nsnc12,1.9016666,-8.7047511,-1.1145216,313.15
1124,BTZ-Neutral-wb97xd-716,CCOCN(C(C)=O)c1c(C)c(C(F)(F)F)c(C)c2nsnc12,1.99488806,-8.6478822,-0.64781568,326.86
1125,BTZ-Neutral-wb97xd-717,CCOCN(C(C)=O)c1c(C)c(C(F)(F)F)c(C(F)(F)F)c2nsnc12,2.37473966,-9.0212034,-0.72256155,320.44
1126,BTZ-Neutral-wb97xd-718,CCOCN(C(C)=O)c1c(C)c(C(F)(F)F)c(C#N)c2nsnc12,2.48289941,-9.0767118,-0.83306136,334.92
1127,BTZ-Neutral-wb97xd-719,CCOCN(C(C)=O)c1c(C)c(C(F)(F)F)c(OC)c2nsnc12,1.96498427,-8.3817684,-0.79442316,348.54
1128,BTZ-Neutral-wb97xd-720,CCOCN(C(C)=O)c1c(C)c(C(F)(F)F)c(OC(F)(F)F)c2nsnc12,2.27365451,-8.9809326,-0.60934074,316.34
1129,BTZ-Neutral-wb97xd-721,CCOCN(C(C)=O)c1c(C)c(C(F)(F)F)c(SC)c2nsnc12,2.11959149,-8.3115666,-0.72043917,373.28
1130,BTZ-Neutral-wb97xd-722,CCOCN(C(C)=O)c1c(C)c(C(F)(F)F)c(SC(F)(F)F)c2nsnc12,2.41386764,-8.8533177,-0.70593624,333.56
1131,BTZ-Neutral-wb97xd-723,CCOCN(C(C)=O)c1c(C)c(C(F)(F)F)c(Br)c2nsnc12,2.25493403,-8.7414846,-0.6048783,335.58
1132,BTZ-Neutral-wb97xd-724,CCOCN(C(C)=O)c1c(C)c(C(F)(F)F)c(N(C)C)c2nsnc12,2.01379901,-8.2846287,-0.76119975,391.35
1133,BTZ-Neutral-wb97xd-725,CCOCN(C(C)=O)c1c(C)c(C(F)(F)F)c([N+](=O)[O-])c2nsnc12,2.5506251,-9.1488183,-0.71129661,323.7
1134,BTZ-Neutral-wb97xd-726,CCOCN(C(C)=O)c1c(C)c(C(F)(F)F)c(S(=O)(=O)N(C)C)c2nsnc12,2.3718554,-8.8655622,-1.01136849,332.39
1135,BTZ-Neutral-wb97xd-727,CCOCN(C(C)=O)c1c(C)c(C#N)c(C)c2nsnc12,1.97973209,-8.6835273,-0.84176856,328.14
1136,BTZ-Neutral-wb97xd-728,CCOCN(C(C)=O)c1c(C)c(C#N)c(C(F)(F)F)c2nsnc12,2.5065449,-8.9265126,-0.74569005,342.27
1137,BTZ-Neutral-wb97xd-729,CCOCN(C(C)=O)c1c(C)c(C#N)c(C#N)c2nsnc12,2.75793809,-8.9482806,-0.82911591,350.22
1138,BTZ-Neutral-wb97xd-730,CCOCN(C(C)=O)c1c(C)c(C#N)c(OC)c2nsnc12,2.10318386,-8.2960569,-0.80068146,358.23
1139,BTZ-Neutral-wb97xd-731,CCOCN(C(C)=O)c1c(C)c(C#N)c(OC(F)(F)F)c2nsnc12,2.43049295,-9.0467808,-0.68163771,324.14
1140,BTZ-Neutral-wb97xd-732,CCOCN(C(C)=O)c1c(C)c(C#N)c(SC)c2nsnc12,2.22674447,-8.3197296,-0.79540272,385.95
1141,BTZ-Neutral-wb97xd-733,CCOCN(C(C)=O)c1c(C)c(C#N)c(SC(F)(F)F)c2nsnc12,2.48431433,-9.1090917,-0.70550088,332.88
1142,BTZ-Neutral-wb97xd-734,CCOCN(C(C)=O)c1c(C)c(C#N)c(Br)c2nsnc12,2.31038801,-8.807877,-0.78909,338.49
1143,BTZ-Neutral-wb97xd-735,CCOCN(C(C)=O)c1c(C)c(C#N)c(N(C)C)c2nsnc12,2.01646559,-7.5983925,-0.78830091,411.52
1144,BTZ-Neutral-wb97xd-736,CCOCN(C(C)=O)c1c(C)c(C#N)c([N+](=O)[O-])c2nsnc12,2.87899538,-9.2437812,-0.86288352,349.25
1145,BTZ-Neutral-wb97xd-737,CCOCN(C(C)=O)c1c(C)c(C#N)c(S(=O)(=O)N(C)C)c2nsnc12,2.56333217,-8.9569878,-1.00208988,336.68
1146,BTZ-Neutral-wb97xd-738,CCOCN(C(C)=O)c1c(C)c(OC)c(C)c2nsnc12,1.74485537,-8.3629935,-0.70234452,332.57
1147,BTZ-Neutral-wb97xd-739,CCOCN(C(C)=O)c1c(C)c(OC)c(C(F)(F)F)c2nsnc12,1.98297008,-8.9210706,-0.7303164,310.5
1148,BTZ-Neutral-wb97xd-740,CCOCN(C(C)=O)c1c(C)c(OC)c(C#N)c2nsnc12,2.16680084,-8.8930443,-0.86389029,321.59
1149,BTZ-Neutral-wb97xd-741,CCOCN(C(C)=O)c1c(C)c(OC)c(OC)c2nsnc12,1.76376632,-8.2631328,-0.74849268,342.53
1150,BTZ-Neutral-wb97xd-742,CCOCN(C(C)=O)c1c(C)c(OC)c(OC(F)(F)F)c2nsnc12,1.89467363,-8.6620314,-0.7610637,321.84
1151,BTZ-Neutral-wb97xd-743,CCOCN(C(C)=O)c1c(C)c(OC)c(SC)c2nsnc12,1.79704415,-8.1912984,-0.73790799,352.51
1152,BTZ-Neutral-wb97xd-744,CCOCN(C(C)=O)c1c(C)c(OC)c(SC(F)(F)F)c2nsnc12,2.01690095,-8.8734531,-0.70999053,312.44
1153,BTZ-Neutral-wb97xd-745,CCOCN(C(C)=O)c1c(C)c(OC)c(Br)c2nsnc12,1.83100223,-8.4729219,-0.80462691,331.25
1154,BTZ-Neutral-wb97xd-746,CCOCN(C(C)=O)c1c(C)c(OC)c(N(C)C)c2nsnc12,1.6807214,-7.3445232,-0.74666961,417.3
1155,BTZ-Neutral-wb97xd-747,CCOCN(C(C)=O)c1c(C)c(OC)c([N+](=O)[O-])c2nsnc12,2.21591489,-8.8998468,-0.91058265,342.79
1156,BTZ-Neutral-wb97xd-748,CCOCN(C(C)=O)c1c(C)c(OC)c(S(=O)(=O)N(C)C)c2nsnc12,2.07376985,-8.7831159,-0.94835013,313.6
1157,BTZ-Neutral-wb97xd-749,CCOCN(C(C)=O)c1c(C)c(OC(F)(F)F)c(C)c2nsnc12,1.81889378,-8.584755,-0.69815418,321.58
1158,BTZ-Neutral-wb97xd-750,CCOCN(C(C)=O)c1c(C)c(OC(F)(F)F)c(C(F)(F)F)c2nsnc12,2.25928763,-9.1145337,-0.56656662,308.14
1159,BTZ-Neutral-wb97xd-751,CCOCN(C(C)=O)c1c(C)c(OC(F)(F)F)c(C#N)c2nsnc12,2.41253435,-8.8111422,-0.66588312,348.38
1160,BTZ-Neutral-wb97xd-752,CCOCN(C(C)=O)c1c(C)c(OC(F)(F)F)c(OC)c2nsnc12,1.92136664,-8.1937473,-0.62659188,356.4
1161,BTZ-Neutral-wb97xd-753,CCOCN(C(C)=O)c1c(C)c(OC(F)(F)F)c(OC(F)(F)F)c2nsnc12,2.14282883,-8.9975307,-0.6078714,314.85
1162,BTZ-Neutral-wb97xd-754,CCOCN(C(C)=O)c1c(C)c(OC(F)(F)F)c(SC)c2nsnc12,2.02332251,-8.3651703,-0.64833267,356.18
1163,BTZ-Neutral-wb97xd-755,CCOCN(C(C)=O)c1c(C)c(OC(F)(F)F)c(SC(F)(F)F)c2nsnc12,2.20799678,-8.87046,-0.60468783,332.04
1164,BTZ-Neutral-wb97xd-756,CCOCN(C(C)=O)c1c(C)c(OC(F)(F)F)c(Br)c2nsnc12,2.02217969,-8.6669292,-0.65850921,329.17
1165,BTZ-Neutral-wb97xd-757,CCOCN(C(C)=O)c1c(C)c(OC(F)(F)F)c(N(C)C)c2nsnc12,1.84953224,-7.6628802,-0.67518894,404.56
1166,BTZ-Neutral-wb97xd-758,CCOCN(C(C)=O)c1c(C)c(OC(F)(F)F)c([N+](=O)[O-])c2nsnc12,2.54262536,-9.0930378,-0.73940454,339.92
1167,BTZ-Neutral-wb97xd-759,CCOCN(C(C)=O)c1c(C)c(OC(F)(F)F)c(S(=O)(=O)N(C)C)c2nsnc12,2.23292114,-8.8361754,-1.00682442,323.48
1168,BTZ-Neutral-wb97xd-760,CCOCN(C(C)=O)c1c(C)c(SC)c(C)c2nsnc12,1.83592724,-8.397006,-0.73638423,331.68
1169,BTZ-Neutral-wb97xd-761,CCOCN(C(C)=O)c1c(C)c(SC)c(C(F)(F)F)c2nsnc12,2.05382492,-8.6402634,-0.7934436,329.21
1170,BTZ-Neutral-wb97xd-762,CCOCN(C(C)=O)c1c(C)c(SC)c(C#N)c2nsnc12,2.31528581,-8.595639,-0.93101736,357.71
1171,BTZ-Neutral-wb97xd-763,CCOCN(C(C)=O)c1c(C)c(SC)c(OC)c2nsnc12,1.88863301,-7.9668159,-0.70903818,367.99
1172,BTZ-Neutral-wb97xd-764,CCOCN(C(C)=O)c1c(C)c(SC)c(OC(F)(F)F)c2nsnc12,2.08957886,-8.6459775,-0.72345948,324.06
1173,BTZ-Neutral-wb97xd-765,CCOCN(C(C)=O)c1c(C)c(SC)c(SC)c2nsnc12,1.91638721,-8.0748396,-0.81986451,373.18
1174,BTZ-Neutral-wb97xd-766,CCOCN(C(C)=O)c1c(C)c(SC)c(SC(F)(F)F)c2nsnc12,2.06544359,-8.3428581,-0.77670945,356.03
1175,BTZ-Neutral-wb97xd-767,CCOCN(C(C)=O)c1c(C)c(SC)c(Br)c2nsnc12,1.96892972,-8.4171414,-0.75654684,337.34
1176,BTZ-Neutral-wb97xd-768,CCOCN(C(C)=O)c1c(C)c(SC)c(N(C)C)c2nsnc12,1.76871854,-7.2558186,-0.79219194,435.22
1177,BTZ-Neutral-wb97xd-769,CCOCN(C(C)=O)c1c(C)c(SC)c([N+](=O)[O-])c2nsnc12,2.30230664,-8.7433893,-0.75260139,335.36
1178,BTZ-Neutral-wb97xd-770,CCOCN(C(C)=O)c1c(C)c(SC)c(S(=O)(=O)N(C)C)c2nsnc12,2.16810692,-8.3363277,-0.99441666,370.65
1179,BTZ-Neutral-wb97xd-771,CCOCN(C(C)=O)c1c(C)c(SC(F)(F)F)c(C)c2nsnc12,1.93981502,-8.6421681,-0.67135233,328.63
1180,BTZ-Neutral-wb97xd-772,CCOCN(C(C)=O)c1c(C)c(SC(F)(F)F)c(C(F)(F)F)c2nsnc12,2.35011461,-8.9953539,-0.62846937,330.02
1181,BTZ-Neutral-wb97xd-773,CCOCN(C(C)=O)c1c(C)c(SC(F)(F)F)c(C#N)c2nsnc12,2.58180776,-9.0723582,-0.72364995,338.18
1182,BTZ-Neutral-wb97xd-774,CCOCN(C(C)=O)c1c(C)c(SC(F)(F)F)c(OC)c2nsnc12,1.98977258,-8.1768771,-0.67339308,360.65
1183,BTZ-Neutral-wb97xd-775,CCOCN(C(C)=O)c1c(C)c(SC(F)(F)F)c(OC(F)(F)F)c2nsnc12,2.17817462,-8.8886907,-0.73769031,324.81
1184,BTZ-Neutral-wb97xd-776,CCOCN(C(C)=O)c1c(C)c(SC(F)(F)F)c(SC)c2nsnc12,2.00707814,-8.2655817,-0.77627409,371.26
1185,BTZ-Neutral-wb97xd-777,CCOCN(C(C)=O)c1c(C)c(SC(F)(F)F)c(SC(F)(F)F)c2nsnc12,2.38837187,-8.7746808,-0.67483521,339.55
1186,BTZ-Neutral-wb97xd-778,CCOCN(C(C)=O)c1c(C)c(SC(F)(F)F)c(Br)c2nsnc12,2.11937381,-8.731689,-0.76280514,332.93
1187,BTZ-Neutral-wb97xd-779,CCOCN(C(C)=O)c1c(C)c(SC(F)(F)F)c(N(C)C)c2nsnc12,1.94474003,-7.5015249,-0.71211291,426.13
1188,BTZ-Neutral-wb97xd-780,CCOCN(C(C)=O)c1c(C)c(SC(F)(F)F)c([N+](=O)[O-])c2nsnc12,2.49397388,-9.1809261,-0.68947419,330.78
1189,BTZ-Neutral-wb97xd-781,CCOCN(C(C)=O)c1c(C)c(SC(F)(F)F)c(S(=O)(=O)N(C)C)c2nsnc12,2.35732526,-8.9025678,-1.01087871,330.86
1190,BTZ-Neutral-wb97xd-782,CCOCN(C(C)=O)c1c(C)c(N(C)C)c(C)c2nsnc12,1.64455931,-7.5964878,-0.74144529,375.37
1191,BTZ-Neutral-wb97xd-783,CCOCN(C(C)=O)c1c(C)c(N(C)C)c(C(F)(F)F)c2nsnc12,1.99311941,-8.021508,-0.74008479,384.47
1192,BTZ-Neutral-wb97xd-784,CCOCN(C(C)=O)c1c(C)c(N(C)C)c(C#N)c2nsnc12,2.14135949,-7.8816486,-0.86974044,388.7
1193,BTZ-Neutral-wb97xd-785,CCOCN(C(C)=O)c1c(C)c(N(C)C)c(OC)c2nsnc12,1.77228305,-7.8443709,-0.69774603,361.26
1194,BTZ-Neutral-wb97xd-786,CCOCN(C(C)=O)c1c(C)c(N(C)C)c(OC(F)(F)F)c2nsnc12,1.82131547,-7.75485,-0.70307919,373.92
1195,BTZ-Neutral-wb97xd-787,CCOCN(C(C)=O)c1c(C)c(N(C)C)c(SC)c2nsnc12,1.73761751,-7.6601592,-0.83368719,377.73
1196,BTZ-Neutral-wb97xd-788,CCOCN(C(C)=O)c1c(C)c(N(C)C)c(SC(F)(F)F)c2nsnc12,1.96966439,-7.7864136,-0.73589445,387.2
1197,BTZ-Neutral-wb97xd-789,CCOCN(C(C)=O)c1c(C)c(N(C)C)c(Br)c2nsnc12,1.8464303,-7.7137629,-0.76653291,381.89
1198,BTZ-Neutral-wb97xd-790,CCOCN(C(C)=O)c1c(C)c(N(C)C)c(N(C)C)c2nsnc12,1.65087203,-7.6198884,-0.74694171,374.71
1199,BTZ-Neutral-wb97xd-791,CCOCN(C(C)=O)c1c(C)c(N(C)C)c([N+](=O)[O-])c2nsnc12,2.15167208,-8.2767378,-0.82723842,361.88
1200,BTZ-Neutral-wb97xd-792,CCOCN(C(C)=O)c1c(C)c(N(C)C)c(S(=O)(=O)N(C)C)c2nsnc12,1.99314662,-7.8462756,-1.12007244,399.84
1201,BTZ-Neutral-wb97xd-793,CCOCN(C(C)=O)c1c(C(F)(F)F)c(C)c(C)c2nsnc12,1.97682062,-8.5665243,-0.66482193,337.76
1202,BTZ-Neutral-wb97xd-794,CCOCN(C(C)=O)c1c(C(F)(F)F)c(C)c(C(F)(F)F)c2nsnc12,2.21994197,-9.1624233,-0.74949945,311.31
1203,BTZ-Neutral-wb97xd-795,CCOCN(C(C)=O)c1c(C(F)(F)F)c(C)c(C#N)c2nsnc12,2.51040872,-9.0133125,-0.7224255,325.67
1204,BTZ-Neutral-wb97xd-796,CCOCN(C(C)=O)c1c(C(F)(F)F)c(C)c(OC)c2nsnc12,1.99031678,-8.6669292,-0.76016577,332.4
1205,BTZ-Neutral-wb97xd-797,CCOCN(C(C)=O)c1c(C(F)(F)F)c(C)c(OC(F)(F)F)c2nsnc12,2.24581868,-9.1278666,-0.63274134,310.66
1206,BTZ-Neutral-wb97xd-798,CCOCN(C(C)=O)c1c(C(F)(F)F)c(C)c(SC)c2nsnc12,2.11804052,-8.3627214,-0.71660256,356.69
1207,BTZ-Neutral-wb97xd-799,CCOCN(C(C)=O)c1c(C(F)(F)F)c(C)c(SC(F)(F)F)c2nsnc12,2.25708362,-9.1311318,-0.67244073,317.94
1208,BTZ-Neutral-wb97xd-800,CCOCN(C(C)=O)c1c(C(F)(F)F)c(C)c(Br)c2nsnc12,2.24938319,-8.7569943,-0.63298623,330.88
1209,BTZ-Neutral-wb97xd-801,CCOCN(C(C)=O)c1c(C(F)(F)F)c(C)c(N(C)C)c2nsnc12,2.01671048,-7.7200212,-0.69121563,414.72
1210,BTZ-Neutral-wb97xd-802,CCOCN(C(C)=O)c1c(C(F)(F)F)c(C)c([N+](=O)[O-])c2nsnc12,2.50553813,-9.0454203,-0.73317345,333.37
1211,BTZ-Neutral-wb97xd-803,CCOCN(C(C)=O)c1c(C(F)(F)F)c(C)c(S(=O)(=O)N(C)C)c2nsnc12,2.38698416,-9.0565764,-0.92467743,315.12
1212,BTZ-Neutral-wb97xd-804,CCOCN(C(C)=O)c1c(C(F)(F)F)c(C(F)(F)F)c(C)c2nsnc12,2.30135429,-9.0693651,-0.62014311,312.18
1213,BTZ-Neutral-wb97xd-805,CCOCN(C(C)=O)c1c(C(F)(F)F)c(C(F)(F)F)c(C(F)(F)F)c2nsnc12,2.61122177,-9.1904496,-0.5733147,328.11
1214,BTZ-Neutral-wb97xd-806,CCOCN(C(C)=O)c1c(C(F)(F)F)c(C(F)(F)F)c(C#N)c2nsnc12,2.87183915,-9.2282715,-0.74179902,334
1215,BTZ-Neutral-wb97xd-807,CCOCN(C(C)=O)c1c(C(F)(F)F)c(C(F)(F)F)c(OC)c2nsnc12,2.20535741,-8.745294,-0.67883508,337
1216,BTZ-Neutral-wb97xd-808,CCOCN(C(C)=O)c1c(C(F)(F)F)c(C(F)(F)F)c(OC(F)(F)F)c2nsnc12,2.45174396,-9.308541,-0.64593819,302.21
1217,BTZ-Neutral-wb97xd-809,CCOCN(C(C)=O)c1c(C(F)(F)F)c(C(F)(F)F)c(SC)c2nsnc12,2.3655971,-8.7003975,-0.72920079,366.01
1218,BTZ-Neutral-wb97xd-810,CCOCN(C(C)=O)c1c(C(F)(F)F)c(C(F)(F)F)c(SC(F)(F)F)c2nsnc12,2.63424143,-9.0895005,-0.56898831,331.44
1219,BTZ-Neutral-wb97xd-811,CCOCN(C(C)=O)c1c(C(F)(F)F)c(C(F)(F)F)c(Br)c2nsnc12,2.52186413,-9.1741236,-0.67412775,317.54
1220,BTZ-Neutral-wb97xd-812,CCOCN(C(C)=O)c1c(C(F)(F)F)c(C(F)(F)F)c(N(C)C)c2nsnc12,2.25000902,-7.8593364,-0.77009742,409.27
1221,BTZ-Neutral-wb97xd-813,CCOCN(C(C)=O)c1c(C(F)(F)F)c(C(F)(F)F)c([N+](=O)[O-])c2nsnc12,2.89649141,-9.245958,-0.61437459,332.42
1222,BTZ-Neutral-wb97xd-814,CCOCN(C(C)=O)c1c(C(F)(F)F)c(C(F)(F)F)c(S(=O)(=O)N(C)C)c2nsnc12,2.65666247,-9.0924936,-0.94386048,322.74
1223,BTZ-Neutral-wb97xd-815,CCOCN(C(C)=O)c1c(C(F)(F)F)c(C#N)c(C)c2nsnc12,2.29498715,-9.1319481,-0.72068406,314.84
1224,BTZ-Neutral-wb97xd-816,CCOCN(C(C)=O)c1c(C(F)(F)F)c(C#N)c(C(F)(F)F)c2nsnc12,2.7424556,-9.482685,-0.75303675,311.47
1225,BTZ-Neutral-wb97xd-817,CCOCN(C(C)=O)c1c(C(F)(F)F)c(C#N)c(C#N)c2nsnc12,2.898641,-9.3243228,-0.73749984,332.06
1226,BTZ-Neutral-wb97xd-818,CCOCN(C(C)=O)c1c(C(F)(F)F)c(C#N)c(OC)c2nsnc12,2.24249906,-8.603802,-0.82459905,342.87
1227,BTZ-Neutral-wb97xd-819,CCOCN(C(C)=O)c1c(C(F)(F)F)c(C#N)c(OC(F)(F)F)c2nsnc12,2.62711241,-9.2739843,-0.61981659,312.3
1228,BTZ-Neutral-wb97xd-820,CCOCN(C(C)=O)c1c(C(F)(F)F)c(C#N)c(SC)c2nsnc12,2.3740322,-8.5638033,-0.83768706,375.5
1229,BTZ-Neutral-wb97xd-821,CCOCN(C(C)=O)c1c(C(F)(F)F)c(C#N)c(SC(F)(F)F)c2nsnc12,2.80906568,-9.1694979,-0.67565151,329.76
1230,BTZ-Neutral-wb97xd-822,CCOCN(C(C)=O)c1c(C(F)(F)F)c(C#N)c(Br)c2nsnc12,2.61516722,-9.1539882,-0.66150231,323.73
1231,BTZ-Neutral-wb97xd-823,CCOCN(C(C)=O)c1c(C(F)(F)F)c(C#N)c(N(C)C)c2nsnc12,2.18786138,-7.8702204,-0.86897856,400.86
1232,BTZ-Neutral-wb97xd-824,CCOCN(C(C)=O)c1c(C(F)(F)F)c(C#N)c([N+](=O)[O-])c2nsnc12,3.04737086,-9.4971063,-0.82960569,332.21
1233,BTZ-Neutral-wb97xd-825,CCOCN(C(C)=O)c1c(C(F)(F)F)c(C#N)c(S(=O)(=O)N(C)C)c2nsnc12,2.75731226,-9.2669097,-1.06679526,321.14
1234,BTZ-Neutral-wb97xd-826,CCOCN(C(C)=O)c1c(C(F)(F)F)c(OC)c(C)c2nsnc12,2.03347184,-8.6291073,-0.70911981,336.35
1235,BTZ-Neutral-wb97xd-827,CCOCN(C(C)=O)c1c(C(F)(F)F)c(OC)c(C(F)(F)F)c2nsnc12,2.34021017,-9.0514065,-0.65380188,324.7
1236,BTZ-Neutral-wb97xd-828,CCOCN(C(C)=O)c1c(C(F)(F)F)c(OC)c(C#N)c2nsnc12,2.52605447,-8.8707321,-0.76892739,334.21
1237,BTZ-Neutral-wb97xd-829,CCOCN(C(C)=O)c1c(C(F)(F)F)c(OC)c(OC)c2nsnc12,2.07232772,-8.5156416,-0.67693038,347.07
1238,BTZ-Neutral-wb97xd-830,CCOCN(C(C)=O)c1c(C(F)(F)F)c(OC)c(OC(F)(F)F)c2nsnc12,2.33071388,-8.8519572,-0.64468653,331.09
1239,BTZ-Neutral-wb97xd-831,CCOCN(C(C)=O)c1c(C(F)(F)F)c(OC)c(SC)c2nsnc12,2.20429622,-8.1809586,-0.71306526,373.76
1240,BTZ-Neutral-wb97xd-832,CCOCN(C(C)=O)c1c(C(F)(F)F)c(OC)c(SC(F)(F)F)c2nsnc12,2.39011331,-9.0650115,-0.65418282,320.78
1241,BTZ-Neutral-wb97xd-833,CCOCN(C(C)=O)c1c(C(F)(F)F)c(OC)c(Br)c2nsnc12,2.29308245,-8.8081491,-0.67001904,330.76
1242,BTZ-Neutral-wb97xd-834,CCOCN(C(C)=O)c1c(C(F)(F)F)c(OC)c(N(C)C)c2nsnc12,2.05042367,-7.3880592,-0.70073913,452.12
1243,BTZ-Neutral-wb97xd-835,CCOCN(C(C)=O)c1c(C(F)(F)F)c(OC)c([N+](=O)[O-])c2nsnc12,2.47079096,-9.0769839,-0.8467752,347.33
1244,BTZ-Neutral-wb97xd-836,CCOCN(C(C)=O)c1c(C(F)(F)F)c(OC)c(S(=O)(=O)N(C)C)c2nsnc12,2.2940348,-8.9363082,-0.99626694,321.27
1245,BTZ-Neutral-wb97xd-837,CCOCN(C(C)=O)c1c(C(F)(F)F)c(OC(F)(F)F)c(C)c2nsnc12,2.18075957,-9.0130404,-0.65578821,315.87
1246,BTZ-Neutral-wb97xd-838,CCOCN(C(C)=O)c1c(C(F)(F)F)c(OC(F)(F)F)c(C(F)(F)F)c2nsnc12,2.5283129,-9.1368459,-0.64876803,325.52
1247,BTZ-Neutral-wb97xd-839,CCOCN(C(C)=O)c1c(C(F)(F)F)c(OC(F)(F)F)c(C#N)c2nsnc12,2.74618337,-9.1349412,-0.67031835,335.22
1248,BTZ-Neutral-wb97xd-840,CCOCN(C(C)=O)c1c(C(F)(F)F)c(OC(F)(F)F)c(OC)c2nsnc12,2.20113986,-8.6340051,-0.67625013,348.23
1249,BTZ-Neutral-wb97xd-841,CCOCN(C(C)=O)c1c(C(F)(F)F)c(OC(F)(F)F)c(OC(F)(F)F)c2nsnc12,2.49342968,-9.2413323,-0.55094808,318.45
1250,BTZ-Neutral-wb97xd-842,CCOCN(C(C)=O)c1c(C(F)(F)F)c(OC(F)(F)F)c(SC)c2nsnc12,2.34908063,-8.6076114,-0.59385825,358.81
1251,BTZ-Neutral-wb97xd-843,CCOCN(C(C)=O)c1c(C(F)(F)F)c(OC(F)(F)F)c(SC(F)(F)F)c2nsnc12,2.59290944,-9.2723517,-0.60547692,313.25
1252,BTZ-Neutral-wb97xd-844,CCOCN(C(C)=O)c1c(C(F)(F)F)c(OC(F)(F)F)c(Br)c2nsnc12,2.35006019,-9.0998403,-0.63532629,319.83
1253,BTZ-Neutral-wb97xd-845,CCOCN(C(C)=O)c1c(C(F)(F)F)c(OC(F)(F)F)c(N(C)C)c2nsnc12,2.17227005,-7.7055999,-0.66805992,422.9
1254,BTZ-Neutral-wb97xd-846,CCOCN(C(C)=O)c1c(C(F)(F)F)c(OC(F)(F)F)c([N+](=O)[O-])c2nsnc12,2.78865818,-9.3229623,-0.62030637,328.28
1255,BTZ-Neutral-wb97xd-847,CCOCN(C(C)=O)c1c(C(F)(F)F)c(OC(F)(F)F)c(S(=O)(=O)N(C)C)c2nsnc12,2.6045009,-9.213306,-0.87765855,318.9
1256,BTZ-Neutral-wb97xd-848,CCOCN(C(C)=O)c1c(C(F)(F)F)c(SC)c(C)c2nsnc12,2.09926562,-8.4669357,-0.62550348,335.01
1257,BTZ-Neutral-wb97xd-849,CCOCN(C(C)=O)c1c(C(F)(F)F)c(SC)c(C(F)(F)F)c2nsnc12,2.46975698,-8.8018908,-0.72446625,342.79
1258,BTZ-Neutral-wb97xd-850,CCOCN(C(C)=O)c1c(C(F)(F)F)c(SC)c(C#N)c2nsnc12,2.71949036,-8.8870581,-0.70852119,365.95
1259,BTZ-Neutral-wb97xd-851,CCOCN(C(C)=O)c1c(C(F)(F)F)c(SC)c(OC)c2nsnc12,2.0371724,-8.1806865,-0.7262349,360.56
1260,BTZ-Neutral-wb97xd-852,CCOCN(C(C)=O)c1c(C(F)(F)F)c(SC)c(OC(F)(F)F)c2nsnc12,2.4311732,-8.7137304,-0.65399235,336.07
1261,BTZ-Neutral-wb97xd-853,CCOCN(C(C)=O)c1c(C(F)(F)F)c(SC)c(SC)c2nsnc12,2.12783612,-8.1741561,-0.75951273,374.98
1262,BTZ-Neutral-wb97xd-854,CCOCN(C(C)=O)c1c(C(F)(F)F)c(SC)c(SC(F)(F)F)c2nsnc12,2.45285957,-8.5833945,-0.5719542,365.51
1263,BTZ-Neutral-wb97xd-855,CCOCN(C(C)=O)c1c(C(F)(F)F)c(SC)c(Br)c2nsnc12,2.35299887,-8.6326446,-0.68416824,340.1
1264,BTZ-Neutral-wb97xd-856,CCOCN(C(C)=O)c1c(C(F)(F)F)c(SC)c(N(C)C)c2nsnc12,2.10204104,-7.4767638,-0.73124154,441.45
1265,BTZ-Neutral-wb97xd-857,CCOCN(C(C)=O)c1c(C(F)(F)F)c(SC)c([N+](=O)[O-])c2nsnc12,2.50864007,-9.0358968,-0.74903688,325.48
1266,BTZ-Neutral-wb97xd-858,CCOCN(C(C)=O)c1c(C(F)(F)F)c(SC)c(S(=O)(=O)N(C)C)c2nsnc12,2.39220848,-8.4530586,-1.01566767,371.41
1267,BTZ-Neutral-wb97xd-859,CCOCN(C(C)=O)c1c(C(F)(F)F)c(SC(F)(F)F)c(C)c2nsnc12,2.278253,-9.0448761,-0.60144984,314.24
1268,BTZ-Neutral-wb97xd-860,CCOCN(C(C)=O)c1c(C(F)(F)F)c(SC(F)(F)F)c(C(F)(F)F)c2nsnc12,2.66224052,-9.218748,-0.62482323,310.67
1269,BTZ-Neutral-wb97xd-861,CCOCN(C(C)=O)c1c(C(F)(F)F)c(SC(F)(F)F)c(C#N)c2nsnc12,2.86677809,-9.2475906,-0.71545974,343.41
1270,BTZ-Neutral-wb97xd-862,CCOCN(C(C)=O)c1c(C(F)(F)F)c(SC(F)(F)F)c(OC)c2nsnc12,2.20078613,-8.5771362,-0.70607229,343.36
1271,BTZ-Neutral-wb97xd-863,CCOCN(C(C)=O)c1c(C(F)(F)F)c(SC(F)(F)F)c(OC(F)(F)F)c2nsnc12,2.52202739,-9.2217411,-0.61042914,311.09
1272,BTZ-Neutral-wb97xd-864,CCOCN(C(C)=O)c1c(C(F)(F)F)c(SC(F)(F)F)c(SC)c2nsnc12,2.3857325,-8.4321069,-0.71611278,378.92
1273,BTZ-Neutral-wb97xd-865,CCOCN(C(C)=O)c1c(C(F)(F)F)c(SC(F)(F)F)c(SC(F)(F)F)c2nsnc12,2.63519378,-9.1961637,-0.60607554,332.67
1274,BTZ-Neutral-wb97xd-866,CCOCN(C(C)=O)c1c(C(F)(F)F)c(SC(F)(F)F)c(Br)c2nsnc12,2.46475034,-9.1567092,-0.66539334,318.2
1275,BTZ-Neutral-wb97xd-867,CCOCN(C(C)=O)c1c(C(F)(F)F)c(SC(F)(F)F)c(N(C)C)c2nsnc12,2.14595798,-7.7826042,-0.68773275,410.98
1276,BTZ-Neutral-wb97xd-868,CCOCN(C(C)=O)c1c(C(F)(F)F)c(SC(F)(F)F)c([N+](=O)[O-])c2nsnc12,2.67472991,-9.4682637,-0.71162313,318.41
1277,BTZ-Neutral-wb97xd-869,CCOCN(C(C)=O)c1c(C(F)(F)F)c(SC(F)(F)F)c(S(=O)(=O)N(C)C)c2nsnc12,2.64879878,-9.0742629,-0.82704795,326.39
1278,BTZ-Neutral-wb97xd-870,CCOCN(C(C)=O)c1c(C(F)(F)F)c(N(C)C)c(C)c2nsnc12,1.99584041,-7.9853187,-0.75891411,361.19
1279,BTZ-Neutral-wb97xd-871,CCOCN(C(C)=O)c1c(C(F)(F)F)c(N(C)C)c(C(F)(F)F)c2nsnc12,2.30870099,-8.0887167,-0.69842628,394.2
1280,BTZ-Neutral-wb97xd-872,CCOCN(C(C)=O)c1c(C(F)(F)F)c(N(C)C)c(C#N)c2nsnc12,2.48755232,-8.4040806,-0.6846036,416.12
1281,BTZ-Neutral-wb97xd-873,CCOCN(C(C)=O)c1c(C(F)(F)F)c(N(C)C)c(OC)c2nsnc12,1.99442549,-8.1355179,-0.76582545,350.68
1282,BTZ-Neutral-wb97xd-874,CCOCN(C(C)=O)c1c(C(F)(F)F)c(N(C)C)c(OC(F)(F)F)c2nsnc12,2.26067534,-8.3123829,-0.72019428,366.97
1283,BTZ-Neutral-wb97xd-875,CCOCN(C(C)=O)c1c(C(F)(F)F)c(N(C)C)c(SC)c2nsnc12,2.10514298,-8.0245011,-0.79004235,387.7
1284,BTZ-Neutral-wb97xd-877,CCOCN(C(C)=O)c1c(C(F)(F)F)c(N(C)C)c(Br)c2nsnc12,2.20225547,-8.1363342,-0.70849398,378.31
1285,BTZ-Neutral-wb97xd-878,CCOCN(C(C)=O)c1c(C(F)(F)F)c(N(C)C)c(N(C)C)c2nsnc12,2.03643773,-7.9499457,-0.74699613,392.73
1286,BTZ-Neutral-wb97xd-879,CCOCN(C(C)=O)c1c(C(F)(F)F)c(N(C)C)c([N+](=O)[O-])c2nsnc12,2.47821929,-8.3164644,-0.77662782,417.99
1287,BTZ-Neutral-wb97xd-880,CCOCN(C(C)=O)c1c(C(F)(F)F)c(N(C)C)c(S(=O)(=O)N(C)C)c2nsnc12,2.36600525,-8.0054541,-0.91760283,414.99
1288,BTZ-Neutral-wb97xd-881,CCOCN(C(C)=O)c1c(C#N)c(C)c(C)c2nsnc12,2.11006799,-8.6062509,-0.79755231,345.68
1289,BTZ-Neutral-wb97xd-882,CCOCN(C(C)=O)c1c(C#N)c(C)c(C(F)(F)F)c2nsnc12,2.36698481,-9.2135781,-0.77159397,317.8
1290,BTZ-Neutral-wb97xd-883,CCOCN(C(C)=O)c1c(C#N)c(C)c(C#N)c2nsnc12,2.54730548,-9.1675932,-0.86051625,330.64
1291,BTZ-Neutral-wb97xd-884,CCOCN(C(C)=O)c1c(C#N)c(C)c(OC)c2nsnc12,2.13009455,-8.6296515,-0.7602474,343.45