Entry Number,File Name,SMILES,Ered,HOMO,Gsol,Absorption Wavelength
1292,BTZ-Neutral-wb97xd-885,CCOCN(C(C)=O)c1c(C#N)c(C)c(OC(F)(F)F)c2nsnc12,2.29387154,-9.0829701,-0.71578626,322.76
1293,BTZ-Neutral-wb97xd-886,CCOCN(C(C)=O)c1c(C#N)c(C)c(SC)c2nsnc12,2.27052536,-8.3978223,-0.7882737,366.46
1294,BTZ-Neutral-wb97xd-887,CCOCN(C(C)=O)c1c(C#N)c(C)c(SC(F)(F)F)c2nsnc12,2.41609886,-9.0960309,-0.78100863,330.05
1295,BTZ-Neutral-wb97xd-888,CCOCN(C(C)=O)c1c(C#N)c(C)c(Br)c2nsnc12,2.3133539,-8.7844764,-0.77967534,344.08
1296,BTZ-Neutral-wb97xd-889,CCOCN(C(C)=O)c1c(C#N)c(C)c(N(C)C)c2nsnc12,2.12541443,-7.714035,-0.83273484,427.32
1297,BTZ-Neutral-wb97xd-890,CCOCN(C(C)=O)c1c(C#N)c(C)c([N+](=O)[O-])c2nsnc12,2.52711566,-9.2658213,-0.859836,334.52
1298,BTZ-Neutral-wb97xd-891,CCOCN(C(C)=O)c1c(C#N)c(C)c(S(=O)(=O)N(C)C)c2nsnc12,2.50308923,-9.0383457,-0.95732943,321.96
1299,BTZ-Neutral-wb97xd-892,CCOCN(C(C)=O)c1c(C#N)c(C(F)(F)F)c(C)c2nsnc12,2.31874148,-9.1240572,-0.75047901,316.2
1300,BTZ-Neutral-wb97xd-893,CCOCN(C(C)=O)c1c(C#N)c(C(F)(F)F)c(C(F)(F)F)c2nsnc12,2.77053632,-9.3694914,-0.76008414,313.08
1301,BTZ-Neutral-wb97xd-894,CCOCN(C(C)=O)c1c(C#N)c(C(F)(F)F)c(C#N)c2nsnc12,2.94340145,-9.2750727,-0.7496355,333.12
1302,BTZ-Neutral-wb97xd-895,CCOCN(C(C)=O)c1c(C#N)c(C(F)(F)F)c(OC)c2nsnc12,2.42213948,-8.6954997,-0.81888495,349.34
1303,BTZ-Neutral-wb97xd-896,CCOCN(C(C)=O)c1c(C#N)c(C(F)(F)F)c(OC(F)(F)F)c2nsnc12,2.6771516,-9.1471857,-0.7352142,326.96
1304,BTZ-Neutral-wb97xd-897,CCOCN(C(C)=O)c1c(C#N)c(C(F)(F)F)c(SC)c2nsnc12,2.52134714,-8.6666571,-0.8358912,379.18
1305,BTZ-Neutral-wb97xd-898,CCOCN(C(C)=O)c1c(C#N)c(C(F)(F)F)c(SC(F)(F)F)c2nsnc12,2.73744896,-9.3613284,-0.74060178,314.45
1306,BTZ-Neutral-wb97xd-899,CCOCN(C(C)=O)c1c(C#N)c(C(F)(F)F)c(Br)c2nsnc12,2.63249999,-9.2252784,-0.76321329,322.5
1307,BTZ-Neutral-wb97xd-900,CCOCN(C(C)=O)c1c(C#N)c(C(F)(F)F)c(N(C)C)c2nsnc12,2.3694065,-7.9083144,-0.87556338,414.83
1308,BTZ-Neutral-wb97xd-901,CCOCN(C(C)=O)c1c(C#N)c(C(F)(F)F)c([N+](=O)[O-])c2nsnc12,2.76133934,-9.3452745,-0.76359423,333.5
1309,BTZ-Neutral-wb97xd-902,CCOCN(C(C)=O)c1c(C#N)c(C(F)(F)F)c(S(=O)(=O)N(C)C)c2nsnc12,2.79429065,-9.3006501,-1.0715298,317.92
1310,BTZ-Neutral-wb97xd-903,CCOCN(C(C)=O)c1c(C#N)c(C#N)c(C)c2nsnc12,2.40156872,-9.0797049,-0.82185084,325.46
1311,BTZ-Neutral-wb97xd-904,CCOCN(C(C)=O)c1c(C#N)c(C#N)c(C(F)(F)F)c2nsnc12,2.88996101,-9.3841848,-0.82435416,316.28
1312,BTZ-Neutral-wb97xd-905,CCOCN(C(C)=O)c1c(C#N)c(C#N)c(C#N)c2nsnc12,3.03942554,-9.2709912,-0.90660999,344.49
1313,BTZ-Neutral-wb97xd-906,CCOCN(C(C)=O)c1c(C#N)c(C#N)c(OC)c2nsnc12,2.35971974,-8.6193117,-0.88788951,351.12
1314,BTZ-Neutral-wb97xd-907,CCOCN(C(C)=O)c1c(C#N)c(C#N)c(OC(F)(F)F)c2nsnc12,2.85227516,-9.3490839,-0.71586789,319.32
1315,BTZ-Neutral-wb97xd-908,CCOCN(C(C)=O)c1c(C#N)c(C#N)c(SC)c2nsnc12,2.63448632,-8.592918,-0.876162,385.34
1316,BTZ-Neutral-wb97xd-909,CCOCN(C(C)=O)c1c(C#N)c(C#N)c(SC(F)(F)F)c2nsnc12,2.77957004,-9.4522098,-0.80655882,328.86
1317,BTZ-Neutral-wb97xd-910,CCOCN(C(C)=O)c1c(C#N)c(C#N)c(Br)c2nsnc12,2.64471728,-9.2114013,-0.88070607,337.71
1318,BTZ-Neutral-wb97xd-911,CCOCN(C(C)=O)c1c(C#N)c(C#N)c(N(C)C)c2nsnc12,2.31789797,-7.896342,-1.05702687,412.81
1319,BTZ-Neutral-wb97xd-912,CCOCN(C(C)=O)c1c(C#N)c(C#N)c([N+](=O)[O-])c2nsnc12,3.11694683,-9.4056807,-0.89137239,351.34
1320,BTZ-Neutral-wb97xd-913,CCOCN(C(C)=O)c1c(C#N)c(C#N)c(S(=O)(=O)N(C)C)c2nsnc12,2.79331109,-9.4271766,-1.07542083,328.71
1321,BTZ-Neutral-wb97xd-914,CCOCN(C(C)=O)c1c(C#N)c(OC)c(C)c2nsnc12,2.18592947,-8.6742759,-0.79387896,345.7
1322,BTZ-Neutral-wb97xd-915,CCOCN(C(C)=O)c1c(C#N)c(OC)c(C(F)(F)F)c2nsnc12,2.43626147,-9.2775216,-0.76476426,319.93
1323,BTZ-Neutral-wb97xd-916,CCOCN(C(C)=O)c1c(C#N)c(OC)c(C#N)c2nsnc12,2.6189222,-9.1659606,-0.86710107,341.49
1324,BTZ-Neutral-wb97xd-917,CCOCN(C(C)=O)c1c(C#N)c(OC)c(OC)c2nsnc12,2.27621225,-8.2780983,-0.81191919,381.44
1325,BTZ-Neutral-wb97xd-918,CCOCN(C(C)=O)c1c(C#N)c(OC)c(OC(F)(F)F)c2nsnc12,2.48978354,-9.1246014,-0.72604443,325.31
1326,BTZ-Neutral-wb97xd-919,CCOCN(C(C)=O)c1c(C#N)c(OC)c(SC)c2nsnc12,2.32984316,-8.1844959,-0.82835403,388.29
1327,BTZ-Neutral-wb97xd-920,CCOCN(C(C)=O)c1c(C#N)c(OC)c(SC(F)(F)F)c2nsnc12,2.40657536,-9.104466,-0.80723907,329.39
1328,BTZ-Neutral-wb97xd-921,CCOCN(C(C)=O)c1c(C#N)c(OC)c(Br)c2nsnc12,2.43441119,-8.824203,-0.66041391,339.64
1329,BTZ-Neutral-wb97xd-922,CCOCN(C(C)=O)c1c(C#N)c(OC)c(N(C)C)c2nsnc12,2.11697933,-7.662336,-0.89090982,440.62
1330,BTZ-Neutral-wb97xd-923,CCOCN(C(C)=O)c1c(C#N)c(OC)c([N+](=O)[O-])c2nsnc12,2.64664919,-9.1575255,-0.77572989,345.31
1331,BTZ-Neutral-wb97xd-924,CCOCN(C(C)=O)c1c(C#N)c(OC)c(S(=O)(=O)N(C)C)c2nsnc12,2.42856104,-8.9145402,-1.18847838,331.07
1332,BTZ-Neutral-wb97xd-925,CCOCN(C(C)=O)c1c(C#N)c(OC(F)(F)F)c(C)c2nsnc12,2.38712021,-9.0595695,-0.70076634,322.51
1333,BTZ-Neutral-wb97xd-926,CCOCN(C(C)=O)c1c(C#N)c(OC(F)(F)F)c(C(F)(F)F)c2nsnc12,2.61176597,-9.4747941,-0.66544776,318.6
1334,BTZ-Neutral-wb97xd-927,CCOCN(C(C)=O)c1c(C#N)c(OC(F)(F)F)c(C#N)c2nsnc12,2.80819496,-9.0979356,-0.84979551,357.79
1335,BTZ-Neutral-wb97xd-928,CCOCN(C(C)=O)c1c(C#N)c(OC(F)(F)F)c(OC)c2nsnc12,2.32788404,-8.6242095,-0.75034296,357.09
1336,BTZ-Neutral-wb97xd-929,CCOCN(C(C)=O)c1c(C#N)c(OC(F)(F)F)c(OC(F)(F)F)c2nsnc12,2.54757758,-9.3703077,-0.6522237,319.42
1337,BTZ-Neutral-wb97xd-930,CCOCN(C(C)=O)c1c(C#N)c(OC(F)(F)F)c(SC)c2nsnc12,2.42543189,-8.5752315,-0.78302217,367.92
1338,BTZ-Neutral-wb97xd-931,CCOCN(C(C)=O)c1c(C#N)c(OC(F)(F)F)c(SC(F)(F)F)c2nsnc12,2.69015798,-9.2195643,-0.66999183,332.22
1339,BTZ-Neutral-wb97xd-932,CCOCN(C(C)=O)c1c(C#N)c(OC(F)(F)F)c(Br)c2nsnc12,2.55356378,-9.1229688,-0.72117384,331.21
1340,BTZ-Neutral-wb97xd-933,CCOCN(C(C)=O)c1c(C#N)c(OC(F)(F)F)c(N(C)C)c2nsnc12,2.24132903,-7.8158004,-0.73573119,422.13
1341,BTZ-Neutral-wb97xd-934,CCOCN(C(C)=O)c1c(C#N)c(OC(F)(F)F)c([N+](=O)[O-])c2nsnc12,2.9242184,-9.1618791,-0.76400238,350.88
1342,BTZ-Neutral-wb97xd-935,CCOCN(C(C)=O)c1c(C#N)c(OC(F)(F)F)c(S(=O)(=O)N(C)C)c2nsnc12,2.59549439,-9.1694979,-0.99248475,326.98
1343,BTZ-Neutral-wb97xd-936,CCOCN(C(C)=O)c1c(C#N)c(SC)c(C)c2nsnc12,2.2170305,-8.6612151,-0.66414168,336.93
1344,BTZ-Neutral-wb97xd-937,CCOCN(C(C)=O)c1c(C#N)c(SC)c(C(F)(F)F)c2nsnc12,2.58129077,-8.8791672,-0.8228304,343.13
1345,BTZ-Neutral-wb97xd-938,CCOCN(C(C)=O)c1c(C#N)c(SC)c(C#N)c2nsnc12,2.7732029,-8.9572599,-0.87681504,359.74
1346,BTZ-Neutral-wb97xd-939,CCOCN(C(C)=O)c1c(C#N)c(SC)c(OC)c2nsnc12,2.20252757,-8.1877611,-0.87474708,380.28
1347,BTZ-Neutral-wb97xd-940,CCOCN(C(C)=O)c1c(C#N)c(SC)c(OC(F)(F)F)c2nsnc12,2.50771493,-8.6952276,-0.7839201,349.44
1348,BTZ-Neutral-wb97xd-941,CCOCN(C(C)=O)c1c(C#N)c(SC)c(SC)c2nsnc12,2.35732526,-8.3178249,-0.94222788,383.65
1349,BTZ-Neutral-wb97xd-942,CCOCN(C(C)=O)c1c(C#N)c(SC)c(SC(F)(F)F)c2nsnc12,2.47468199,-8.7110094,-0.78699483,352.97
1350,BTZ-Neutral-wb97xd-943,CCOCN(C(C)=O)c1c(C#N)c(SC)c(Br)c2nsnc12,2.52746939,-8.7613479,-0.67793715,348.66
1351,BTZ-Neutral-wb97xd-944,CCOCN(C(C)=O)c1c(C#N)c(SC)c(N(C)C)c2nsnc12,2.28663368,-7.5415236,-0.88427058,452.58
1352,BTZ-Neutral-wb97xd-945,CCOCN(C(C)=O)c1c(C#N)c(SC)c([N+](=O)[O-])c2nsnc12,2.72221136,-9.093582,-0.79104912,329.61
1353,BTZ-Neutral-wb97xd-946,CCOCN(C(C)=O)c1c(C#N)c(SC)c(S(=O)(=O)N(C)C)c2nsnc12,2.5925285,-8.5692453,-1.07335287,366.43
1354,BTZ-Neutral-wb97xd-947,CCOCN(C(C)=O)c1c(C#N)c(SC(F)(F)F)c(C)c2nsnc12,2.30412971,-9.0067821,-0.68493012,329.13
1355,BTZ-Neutral-wb97xd-948,CCOCN(C(C)=O)c1c(C#N)c(SC(F)(F)F)c(C(F)(F)F)c2nsnc12,2.71619795,-9.3460908,-0.77855973,331.44
1356,BTZ-Neutral-wb97xd-949,CCOCN(C(C)=O)c1c(C#N)c(SC(F)(F)F)c(C#N)c2nsnc12,2.85472406,-9.3885384,-0.83575515,344.4
1357,BTZ-Neutral-wb97xd-950,CCOCN(C(C)=O)c1c(C#N)c(SC(F)(F)F)c(OC)c2nsnc12,2.32793846,-8.5496541,-0.76321329,352.89
1358,BTZ-Neutral-wb97xd-951,CCOCN(C(C)=O)c1c(C#N)c(SC(F)(F)F)c(OC(F)(F)F)c2nsnc12,2.7378299,-9.079977,-0.61913634,341.57
1359,BTZ-Neutral-wb97xd-952,CCOCN(C(C)=O)c1c(C#N)c(SC(F)(F)F)c(SC)c2nsnc12,2.52697961,-8.4642147,-0.78947094,385.4
1360,BTZ-Neutral-wb97xd-953,CCOCN(C(C)=O)c1c(C#N)c(SC(F)(F)F)c(SC(F)(F)F)c2nsnc12,2.65679852,-9.3730287,-0.67121628,326.72
1361,BTZ-Neutral-wb97xd-954,CCOCN(C(C)=O)c1c(C#N)c(SC(F)(F)F)c(Br)c2nsnc12,2.51174201,-9.1327644,-0.75232929,330.36
1362,BTZ-Neutral-wb97xd-955,CCOCN(C(C)=O)c1c(C#N)c(SC(F)(F)F)c(N(C)C)c2nsnc12,2.31531302,-7.8397452,-0.85839387,424.15
1363,BTZ-Neutral-wb97xd-956,CCOCN(C(C)=O)c1c(C#N)c(SC(F)(F)F)c([N+](=O)[O-])c2nsnc12,2.82550052,-9.463638,-0.83518374,334.76
1364,BTZ-Neutral-wb97xd-957,CCOCN(C(C)=O)c1c(C#N)c(SC(F)(F)F)c(S(=O)(=O)N(C)C)c2nsnc12,2.67677066,-9.2143944,-1.055748,326.6
1365,BTZ-Neutral-wb97xd-958,CCOCN(C(C)=O)c1c(C#N)c(N(C)C)c(C)c2nsnc12,2.0883272,-7.8027396,-0.80745675,402.34
1366,BTZ-Neutral-wb97xd-959,CCOCN(C(C)=O)c1c(C#N)c(N(C)C)c(C(F)(F)F)c2nsnc12,2.37961025,-8.3986386,-0.8288166,377.96
1367,BTZ-Neutral-wb97xd-960,CCOCN(C(C)=O)c1c(C#N)c(N(C)C)c(C#N)c2nsnc12,2.54648918,-8.0832747,-0.8397006,419.52
1368,BTZ-Neutral-wb97xd-961,CCOCN(C(C)=O)c1c(C#N)c(N(C)C)c(OC)c2nsnc12,2.03692751,-7.9221915,-0.77393403,393.92
1369,BTZ-Neutral-wb97xd-962,CCOCN(C(C)=O)c1c(C#N)c(N(C)C)c(OC(F)(F)F)c2nsnc12,2.28663368,-8.0152497,-0.7888179,401.45
1370,BTZ-Neutral-wb97xd-963,CCOCN(C(C)=O)c1c(C#N)c(N(C)C)c(SC)c2nsnc12,2.25841691,-8.0122566,-0.85839387,400.15
1371,BTZ-Neutral-wb97xd-964,CCOCN(C(C)=O)c1c(C#N)c(N(C)C)c(SC(F)(F)F)c2nsnc12,2.30012984,-7.9978353,-0.83023152,410.54
1372,BTZ-Neutral-wb97xd-965,CCOCN(C(C)=O)c1c(C#N)c(N(C)C)c(Br)c2nsnc12,2.30894588,-8.1382389,-0.83951013,380.67
1373,BTZ-Neutral-wb97xd-966,CCOCN(C(C)=O)c1c(C#N)c(N(C)C)c(N(C)C)c2nsnc12,2.13910106,-7.3072455,-0.86013531,479.2
1374,BTZ-Neutral-wb97xd-967,CCOCN(C(C)=O)c1c(C#N)c(N(C)C)c([N+](=O)[O-])c2nsnc12,2.61462302,-8.6590383,-0.90748071,362.99
1375,BTZ-Neutral-wb97xd-968,CCOCN(C(C)=O)c1c(C#N)c(N(C)C)c(S(=O)(=O)N(C)C)c2nsnc12,2.28320522,-8.0084472,-1.04951691,408.76
1376,BTZ-Neutral-wb97xd-969,CCOCN(C(C)=O)c1c(OC)c(C)c(C)c2nsnc12,1.64039618,-8.2465347,-0.73622097,338.02
1377,BTZ-Neutral-wb97xd-970,CCOCN(C(C)=O)c1c(OC)c(C)c(C(F)(F)F)c2nsnc12,2.01420716,-8.7493755,-0.85346886,319
1378,BTZ-Neutral-wb97xd-971,CCOCN(C(C)=O)c1c(OC)c(C)c(C#N)c2nsnc12,2.13493793,-8.8549503,-0.92361624,322.5
1379,BTZ-Neutral-wb97xd-972,CCOCN(C(C)=O)c1c(OC)c(C)c(OC)c2nsnc12,1.66725245,-8.2941522,-0.78723972,337.39
1380,BTZ-Neutral-wb97xd-973,CCOCN(C(C)=O)c1c(OC)c(C)c(OC(F)(F)F)c2nsnc12,1.96982765,-8.6655687,-0.64724427,325.64
1381,BTZ-Neutral-wb97xd-974,CCOCN(C(C)=O)c1c(OC)c(C)c(SC)c2nsnc12,1.72341389,-8.1708909,-0.84685683,349.53
1382,BTZ-Neutral-wb97xd-975,CCOCN(C(C)=O)c1c(OC)c(C)c(SC(F)(F)F)c2nsnc12,2.00705093,-8.7292401,-0.65287674,326.39
1383,BTZ-Neutral-wb97xd-976,CCOCN(C(C)=O)c1c(OC)c(C)c(Br)c2nsnc12,1.82471672,-8.4530586,-0.75540402,334.23
1384,BTZ-Neutral-wb97xd-977,CCOCN(C(C)=O)c1c(OC)c(C)c(N(C)C)c2nsnc12,1.73397137,-7.5611148,-0.77336262,404.53
1385,BTZ-Neutral-wb97xd-978,CCOCN(C(C)=O)c1c(OC)c(C)c([N+](=O)[O-])c2nsnc12,2.34472703,-8.560266,-0.70215405,339.44
1386,BTZ-Neutral-wb97xd-979,CCOCN(C(C)=O)c1c(OC)c(C)c(S(=O)(=O)N(C)C)c2nsnc12,2.04892712,-8.764341,-1.06674084,319.16
1387,BTZ-Neutral-wb97xd-980,CCOCN(C(C)=O)c1c(OC)c(C(F)(F)F)c(C)c2nsnc12,1.90591136,-8.4631263,-0.68863068,333.75
1388,BTZ-Neutral-wb97xd-981,CCOCN(C(C)=O)c1c(OC)c(C(F)(F)F)c(C(F)(F)F)c2nsnc12,2.4390641,-8.9090982,-0.63823776,337.29
1389,BTZ-Neutral-wb97xd-982,CCOCN(C(C)=O)c1c(OC)c(C(F)(F)F)c(C#N)c2nsnc12,2.48817815,-8.7648852,-0.91330365,359.12
1390,BTZ-Neutral-wb97xd-983,CCOCN(C(C)=O)c1c(OC)c(C(F)(F)F)c(OC)c2nsnc12,1.9759499,-8.3112945,-0.67924323,349.96
1391,BTZ-Neutral-wb97xd-984,CCOCN(C(C)=O)c1c(OC)c(C(F)(F)F)c(OC(F)(F)F)c2nsnc12,2.23624076,-8.8086933,-0.69464409,329.03
1392,BTZ-Neutral-wb97xd-985,CCOCN(C(C)=O)c1c(OC)c(C(F)(F)F)c(SC)c2nsnc12,2.25153278,-8.367075,-0.73556793,378.55
1393,BTZ-Neutral-wb97xd-986,CCOCN(C(C)=O)c1c(OC)c(C(F)(F)F)c(SC(F)(F)F)c2nsnc12,2.33272742,-8.8827045,-0.74871036,333.98
1394,BTZ-Neutral-wb97xd-987,CCOCN(C(C)=O)c1c(OC)c(C(F)(F)F)c(Br)c2nsnc12,2.25060764,-8.6008089,-0.63921732,344.65
1395,BTZ-Neutral-wb97xd-988,CCOCN(C(C)=O)c1c(OC)c(C(F)(F)F)c(N(C)C)c2nsnc12,2.07279029,-8.3341509,-0.80424597,395.5
1396,BTZ-Neutral-wb97xd-989,CCOCN(C(C)=O)c1c(OC)c(C(F)(F)F)c([N+](=O)[O-])c2nsnc12,2.63949296,-8.8209378,-0.6729033,344.19
1397,BTZ-Neutral-wb97xd-990,CCOCN(C(C)=O)c1c(OC)c(C(F)(F)F)c(S(=O)(=O)N(C)C)c2nsnc12,2.51674865,-8.8263798,-0.83281647,345.24
1398,BTZ-Neutral-wb97xd-991,CCOCN(C(C)=O)c1c(OC)c(C#N)c(C)c2nsnc12,2.19096332,-8.6859762,-0.72881985,331.98
1399,BTZ-Neutral-wb97xd-992,CCOCN(C(C)=O)c1c(OC)c(C#N)c(C(F)(F)F)c2nsnc12,2.5664069,-9.0927657,-0.86587662,331.4
1400,BTZ-Neutral-wb97xd-993,CCOCN(C(C)=O)c1c(OC)c(C#N)c(C#N)c2nsnc12,2.68419899,-9.1060986,-1.01319156,348.32
1401,BTZ-Neutral-wb97xd-994,CCOCN(C(C)=O)c1c(OC)c(C#N)c(OC)c2nsnc12,2.08163354,-8.2087128,-0.83434023,363.12
1402,BTZ-Neutral-wb97xd-995,CCOCN(C(C)=O)c1c(OC)c(C#N)c(OC(F)(F)F)c2nsnc12,2.4167519,-8.9422944,-0.85444842,328.27
1403,BTZ-Neutral-wb97xd-996,CCOCN(C(C)=O)c1c(OC)c(C#N)c(SC)c2nsnc12,2.3228774,-8.3624493,-0.76305003,385.59
1404,BTZ-Neutral-wb97xd-997,CCOCN(C(C)=O)c1c(OC)c(C#N)c(SC(F)(F)F)c2nsnc12,2.54632592,-9.0054216,-0.74699613,344.75
1405,BTZ-Neutral-wb97xd-998,CCOCN(C(C)=O)c1c(OC)c(C#N)c(Br)c2nsnc12,2.37220913,-8.5322397,-0.80013726,362.34
1406,BTZ-Neutral-wb97xd-999,CCOCN(C(C)=O)c1c(OC)c(C#N)c(N(C)C)c2nsnc12,1.92566582,-7.6155348,-0.91349412,410.5